<LesHouchesEvents version="3.0">
<!--
file generated with POWHEG-BOX-V2
SVN status Begin
/home/sjlee/program/POWHEG-BOX-RES
URL: svn://powhegbox.mib.infn.it/trunk/POWHEG-BOX-RES
Rev.3926
Warning: not a clean version:
M       bbinit.f
M       Bornzerodamp.f
/home/sjlee/program/POWHEG-BOX-RES/b_bbar_4l
URL: svn://powhegbox.mib.infn.it/trunk/User-Processes-RES/b_bbar_4l
Rev.3926
Warning: not a clean version:
M       Makefile
M       run-example/powheg.input-save
M       run-example/run-parallel.sh
SVN status End
Input file powheg.input contained:
!!!!!!!!!!!!!!!!!!!!!!!!!!!!!!!!!!!!!!!!!!!!!!!!!!!!!!!!!!!!!!!!!!!!!!!!!!!!!!!!!!!!!!!!!!!!!!!!!!!!
! Standard settings which have the same meaning as in POWHEG-BOX-V2
!!!!!!!!!!!!!!!!!!!!!!!!!!!!!!!!!!!!!!!!!!!!!!!!!!!!!!!!!!!!!!!!!!!!!!!!!!!!!!!!!!!!!!!!!!!!!!!!!!!!
numevts 1000                                    ! number of events to be generated
ih1   1                                          ! hadron 1 (1 for protons, -1 for antiprotons)
ih2   1                                          ! hadron 2 (1 for protons, -1 for antiprotons)
!ndns1 131                                        ! pdf set for hadron 1 (mlm numbering) [if not usi
!ndns2 131                                        ! pdf set for hadron 2 (mlm numbering) [if not usi
ebeam1 6500d0                                    ! energy of beam 1
ebeam2 6500d0                                    ! energy of beam 2
lhans1 260000                                     ! pdf set for hadron 1 (LHA numbering) [if using L
lhans2 260000                                     ! pdf set for hadron 2 (LHA numbering) [if using L
#QCDLambda5  0.2                                 ! to be set only if using different pdf sets for th

use-old-grid 1                                   ! if 1 use old grid if file pwggrids.dat is present
use-old-ubound 1                                 ! if 1 use norm of upper bounding function stored i

ncall1 80000                                     ! number of calls for initializing the integration
itmx1    1                                       ! number of iterations for initializing the integra
ncall2 100000                                    ! number of calls for computing the integral and fi
itmx2   3                                        ! number of iterations for computing the integral a
foldcsi   1                                      ! number of folds on csi integration
foldy     1                                      ! number of folds on  y  integration
foldphi   1                                      ! number of folds on phi integration
nubound 10000                                    ! number of bbarra calls to setup norm of upper bou
icsimax  1                                       ! <= 100, number of csi subdivision when computing
iymax    1                                       ! <= 100, number of y subdivision when computing th
xupbound 2d0                                     ! increase upper bound for radiation generation
storemintupb 1                                   ! (default 0, do not) Store st2 btilde calls to set
fastbtlbound 1                                   ! (default 0, do not) Turn on fast calculation of t


!!!!!!!!!!!!!!!!!!!!!!!!!!!!!!!!!!!!!!!!!!!!!!!!!!!!!!!!!!!!!!!!!!!!!!!!!!!!!!!!!!!!!!!!!!!!!!!!!!!!
! Some standard optional settings
!!!!!!!!!!!!!!!!!!!!!!!!!!!!!!!!!!!!!!!!!!!!!!!!!!!!!!!!!!!!!!!!!!!!!!!!!!!!!!!!!!!!!!!!!!!!!!!!!!!!
#renscfact  1d0                                  ! (default 1d0) ren scale factor: muren  = muref *
#facscfact  1d0                                  ! (default 1d0) fac scale factor: mufact = muref *
#bornonly   1                                    ! (default 0) if 1 do Born only
#smartsig   0                                    ! (default 1) remember equal amplitudes (0 do not r
#ptsqmin    0.8                                  ! (default 0.8 GeV) minimum pt for generation of ra
#charmthr   1.5                                  ! (default 1.5 GeV) charm treshold for gluon splitt
#bottomthr  5.0                                  ! (default 5.0 GeV) bottom treshold for gluon split
#testplots  0                                    ! (default 0, do not) do NLO and PWHG distributions
#charmthrpdf  1.5                                ! (default 1.5 GeV) pdf charm treshold
#bottomthrpdf 5.0                                ! (default 5.0 GeV) pdf bottom treshold

#iseed    55                                     ! initialize random number sequence
#rand1     -1                                    ! initialize random number sequence
#rand2     -1                                    ! initialize random number sequence


!!!!!!!!!!!!!!!!!!!!!!!!!!!!!!!!!!!!!!!!!!!!!!!!!!!!!!!!!!!!!!!!!!!!!!!!!!!!!!!!!!!!!!!!!!!!!!!!!!!!
! Settings for piloting "manyseeds" (parallel) runs
!!!!!!!!!!!!!!!!!!!!!!!!!!!!!!!!!!!!!!!!!!!!!!!!!!!!!!!!!!!!!!!!!!!!!!!!!!!!!!!!!!!!!!!!!!!!!!!!!!!!
manyseeds 1                                      ! (default 0) allow for the generation of different
parallelstage 4
xgriditeration 1                                 ! which grid iteration when in parallelstage 4


!!!!!!!!!!!!!!!!!!!!!!!!!!!!!!!!!!!!!!!!!!!!!!!!!!!!!!!!!!!!!!!!!!!!!!!!!!!!!!!!!!!!!!!!!!!!!!!!!!!!
! POWHEG-BOX-RES and bb4l relevant settings
!!!!!!!!!!!!!!!!!!!!!!!!!!!!!!!!!!!!!!!!!!!!!!!!!!!!!!!!!!!!!!!!!!!!!!!!!!!!!!!!!!!!!!!!!!!!!!!!!!!!
channel 0                                        ! (default 0) 0 ... e- nu_e  mu+ nu_mu~ (-11,  12,
allrad 1                                         ! (default 0, single shower scheme) Turns on multip
hdamp 172.5                                      ! Using a damping factor h**2/(pt2+h**2) to separat
withdamp 1                                       ! Turn on calculation of the remnants


!!!!!!!!!!!!!!!!!!!!!!!!!!!!!!!!!!!!!!!!!!!!!!!!!!!!!!!!!!!!!!!!!!!!!!!!!!!!!!!!!!!!!!!!!!!!!!!!!!!!
! Physics constants
!!!!!!!!!!!!!!!!!!!!!!!!!!!!!!!!!!!!!!!!!!!!!!!!!!!!!!!!!!!!!!!!!!!!!!!!!!!!!!!!!!!!!!!!!!!!!!!!!!!!
#tmass      172.5d0                              ! (default 172.5) top quark mass (in the matrix ele
#tmass_phsp 172.5d0                              ! (default 172.5) top quark mass (in the phase spac
#twidth                                          ! (default unset) top quark width (calculated from
#zmass      91.188d0                             ! (default 91.188d0) mass of Z-boson
#zwidth     2.441d0                              ! (default 2.441d0) width of Z-boson
#wmass      80.419d0                             ! (default 80.419d0) mass of W-boson
#wwidth     2.04807d0                            ! (default 2.04807d0) width of W-boson
#hmass      125d0                                ! (default 125d0) mass of Higgs boson
#hwidth     0.403d-2                             ! (default 0.403d-2) width of the Higgs boson
#bmass      4.75d0                               ! (default 4.75d0) mass of the bottom quark
#ewscheme   2                                    ! (default 2) 1...wmass, zmass, grefmi input; alpha
#gfermi     1.1658029175194381d-5                ! (default 1.1658029175194381d-5) gfermi
#alpha      0.007546772                          ! (default 0.007546772) alpha


!!!!!!!!!!!!!!!!!!!!!!!!!!!!!!!!!!!!!!!!!!!!!!!!!!!!!!!!!!!!!!!!!!!!!!!!!!!!!!!!!!!!!!!!!!!!!!!!!!!!
! Other settings
!!!!!!!!!!!!!!!!!!!!!!!!!!!!!!!!!!!!!!!!!!!!!!!!!!!!!!!!!!!!!!!!!!!!!!!!!!!!!!!!!!!!!!!!!!!!!!!!!!!!
# clobberlhe 1                                   ! (default 0, do not) Delete pwgevents.lhe file if

!!!!!!!!!!!!!!!!!!!!!!!!!!!!!!!!!!!!!!!!!!!!!!!!!!!!!!!!!!!!!!!!!!!!!!!!!!!!!!!!!!!!!!!!!!!!!!!!!!!!
! The following is the minimal settings that we used for the publication of our paper.
! It performs event generation with the `for_reweighting 1` settings (no virtual and modified subtra
! Thus the 'default' weight has the correct cross section for the parameters given in the powheg.inp
! a useful cross section.
! If more weights are needed, they should be included in the <initrwgt> section (see README.Compress
! If weights are added to a previously existing .lhe file, i.e. `rwl_add 1`, the for_reweighting fla
! is always used.
!!!!!!!!!!!!!!!!!!!!!!!!!!!!!!!!!!!!!!!!!!!!!!!!!!!!!!!!!!!!!!!!!!!!!!!!!!!!!!!!!!!!!!!!!!!!!!!!!!!!
for_reweighting 1                                ! (default 0) Modifies subtraction to reduce reweig
rwl_file '-'                                     ! If set to '-' read the xml reweighting info from
rwl_group_events 100                             ! (default 1000) It keeps 100 events in memory, rep
lhapdf6maxsets 1                                 ! (default 10) Maximum number of lhapdf6 sets that
End of powheg.input content
PDF package: lha
 Random number generator initialized with:            1             0             0
-->
<header>
<initrwgt>
<weight id='1' >default</weight>
</initrwgt>
</header>
<init>
     2212     2212  6.50000E+03  6.50000E+03     -1     -1     -1     -1     -4      1
  8.93814E+00  1.31281E-02  1.00000E+00  10001
</init>
<event>
     15  10001  1.35503E+01  4.88853E+01 -1.00000E+00  2.35254E-01
      21    -1     0     0   507   511  0.000000000E+00  0.000000000E+00  2.044719654E+02  2.044719654E+02  0.000000000E+00  0.00000E+00  9.000E+00
      21    -1     0     0   501   502  0.000000000E+00  0.000000000E+00 -6.528917344E+02  6.528917344E+02  0.000000000E+00  0.00000E+00  9.000E+00
      -6     2     1     2     0   502 -1.604956777E+02  1.597281785E+02 -3.990354054E+02  4.901678293E+02  1.725204118E+02  0.00000E+00  9.000E+00
       6     2     1     2   507     0  1.259368713E+02 -1.251527820E+02 -1.230793638E+02  2.787610233E+02  1.761699859E+02  0.00000E+00  9.000E+00
     -24     2     3     3     0     0 -1.278839547E+02  1.688337590E+02 -2.452676038E+02  3.325341060E+02  7.458947722E+01  0.00000E+00  9.000E+00
      24     2     4     4     0     0  2.326641326E+01  2.794079027E+00 -5.606761113E+01  1.006995058E+02  8.029745068E+01  0.00000E+00  9.000E+00
     -11     1     6     6     0     0  5.857925405E+00  3.619328704E+01 -4.642517022E+00  3.695703291E+01  0.000000000E+00  0.00000E+00  9.000E+00
      12     1     6     6     0     0  1.740848786E+01 -3.339920802E+01 -5.142509410E+01  6.374247288E+01  9.536743164E-07  0.00000E+00  9.000E+00
      13     1     5     5     0     0 -5.568633713E+01  2.206516704E+01 -8.078326642E+01  1.005672704E+02  0.000000000E+00  0.00000E+00  9.000E+00
     -14     1     5     5     0     0 -7.219761762E+01  1.467685920E+02 -1.644843374E+02  2.319668357E+02  4.672030912E-06  0.00000E+00  9.000E+00
       5     1     4     4   512     0  4.825161141E+01 -4.778696115E+01 -2.680134701E+01  7.316205548E+01  4.750000000E+00  0.00000E+00  9.000E+00
      -5     1     3     3     0   513 -2.082418060E+01 -5.008251971E+00 -8.808023796E+01  9.077125043E+01  4.750000000E+00  0.00000E+00  9.000E+00
      21     1     1     2   501   511  3.455880644E+01 -3.457539651E+01  7.369500022E+01  8.843484723E+01  2.336015456E-06  0.00000E+00  9.000E+00
      21     1     4     4   507   512  5.441884658E+01 -8.015989989E+01 -4.021040561E+01  1.048994620E+02  1.348699152E-06  0.00000E+00  9.000E+00
      21     1     3     3   513   502 -1.178754234E+01 -4.097328531E+00 -6.568756362E+01  6.686247280E+01  1.348699152E-06  0.00000E+00  9.000E+00
#rwgt            1          17   8.4211401676318172                1        1729           0       11011           0
<weights>
0.29993E+01
</weights>
</event>
<event>
     15  10001  1.35503E+01  2.59410E+01 -1.00000E+00  1.29183E-01
      21    -1     0     0   502   501  0.000000000E+00  0.000000000E+00  7.556099729E+02  7.556099729E+02  0.000000000E+00  0.00000E+00  9.000E+00
      21    -1     0     0   507   511  0.000000000E+00  0.000000000E+00 -2.227986820E+02  2.227986820E+02  0.000000000E+00  0.00000E+00  9.000E+00
      -6     2     1     2     0   501 -1.563086068E+01  2.763873180E+02  2.612391039E+02  4.179367724E+02  1.726007037E+02  0.00000E+00  9.000E+00
       6     2     1     2   507     0  9.348736481E+00 -3.015561878E+02  6.722555521E+01  3.544852738E+02  1.735425043E+02  0.00000E+00  9.000E+00
     -24     2     3     3     0     0 -1.370454397E+01  1.995207257E+02  1.771479977E+02  2.805079715E+02  8.548084293E+01  0.00000E+00  9.000E+00
      24     2     4     4     0     0  6.751151650E+00 -2.061451186E+02  1.127678310E+02  2.485580856E+02  8.076602160E+01  0.00000E+00  9.000E+00
     -11     1     6     6     0     0 -1.113565898E+01 -1.707936589E+01 -9.705731006E+00  2.258116149E+01  0.000000000E+00  0.00000E+00  9.000E+00
      12     1     6     6     0     0  1.788681063E+01 -1.890657527E+02  1.224735620E+02  2.259769241E+02  1.348699152E-06  0.00000E+00  9.000E+00
      13     1     5     5     0     0  2.105967332E+01  1.066668343E+02  1.335111830E+02  1.721817626E+02  0.000000000E+00  0.00000E+00  9.000E+00
     -14     1     5     5     0     0 -3.476421729E+01  9.285389137E+01  4.363681467E+01  1.083262089E+02  3.662655710E-06  0.00000E+00  9.000E+00
       5     1     4     4   514     0  1.289282343E+00 -7.339985570E+01 -3.600025476E+01  8.190104949E+01  4.750000000E+00  0.00000E+00  9.000E+00
      -5     1     3     3     0   512  3.326869613E+01  4.450630819E+01  6.576090262E+01  8.622456973E+01  4.750000000E+00  0.00000E+00  9.000E+00
      21     1     3     3   512   501 -3.519501283E+01  3.236028415E+01  1.833020357E+01  5.120423109E+01  2.384185791E-07  0.00000E+00  9.000E+00
      21     1     1     2   502   511  6.282124197E+00  2.516886973E+01  2.043466317E+02  2.059866088E+02  0.000000000E+00  0.00000E+00  9.000E+00
      21     1     4     4   507   514  1.308302488E+00 -2.201121351E+01 -9.542021048E+00  2.402613871E+01  3.769728732E-07  0.00000E+00  9.000E+00
#rwgt            1          17   17.147626744357371                1        6632           0      110110           0
<weights>
0.10864E+02
</weights>
</event>
<event>
     14  10001  1.35503E+01  1.52333E+02 -1.00000E+00  4.15991E-01
      21    -1     0     0   502   511  0.000000000E+00  0.000000000E+00  4.409595205E+02  4.409595205E+02  0.000000000E+00  0.00000E+00  9.000E+00
      21    -1     0     0   507   502  0.000000000E+00  0.000000000E+00 -1.735780978E+02  1.735780978E+02  0.000000000E+00  0.00000E+00  9.000E+00
      -6     2     1     2     0   501 -2.451943238E+01 -1.440847424E+00  1.271476757E+02  2.155351738E+02  1.722950988E+02  0.00000E+00  9.000E+00
       6     2     1     2   507     0 -6.554784897E+01 -1.214138154E+02  7.012281605E+01  2.313094930E+02  1.718983337E+02  0.00000E+00  9.000E+00
     -24     2     3     3     0     0 -2.249475603E+00  1.129605292E+01  1.554006777E+02  1.752866364E+02  8.027062549E+01  0.00000E+00  9.000E+00
      24     2     4     4     0     0  4.291462977E+00 -2.473838239E+01  7.632760426E+01  1.117907466E+02  7.772299290E+01  0.00000E+00  9.000E+00
     -11     1     6     6     0     0 -1.015677003E+01  2.619093899E+01  1.995519911E+01  3.445773112E+01  0.000000000E+00  0.00000E+00  9.000E+00
      12     1     6     6     0     0  1.444823300E+01 -5.092932138E+01  5.637240515E+01  7.733301543E+01  6.743495762E-07  0.00000E+00  9.000E+00
      13     1     5     5     0     0  2.340434366E+01  3.063062829E+01  4.022091968E+01  5.571104981E+01  0.000000000E+00  0.00000E+00  9.000E+00
     -14     1     5     5     0     0 -2.565381927E+01 -1.933457537E+01  1.151797580E+02  1.195755866E+02  2.336015456E-06  0.00000E+00  9.000E+00
       5     1     4     4   507     0 -6.983931195E+01 -9.667543306E+01 -6.204788215E+00  1.195187464E+02  4.750000000E+00  0.00000E+00  9.000E+00
      -5     1     3     3     0   512 -2.113245951E+01 -1.344855485E+01 -2.907898158E+01  3.867291225E+01  4.750000000E+00  0.00000E+00  9.000E+00
      21     1     1     2   501   511  9.006728135E+01  1.228546629E+02  7.011093093E+01  1.676929515E+02  3.814697266E-06  0.00000E+00  9.000E+00
      21     1     3     3   512   501 -1.137497270E+00  7.116545117E-01  8.259796021E-01  1.575625110E+00  3.799065585E-08  0.00000E+00  9.000E+00
#rwgt            1          17   45.936474913103915                1       13960           0         111           0
<weights>
0.12580E+02
</weights>
</event>
<event>
     13  10001  1.35503E+01  1.81938E+02 -1.00000E+00  1.13165E-01
       1    -1     0     0   507     0  0.000000000E+00  0.000000000E+00  7.629122358E+02  7.629122358E+02  0.000000000E+00  0.00000E+00  9.000E+00
      21    -1     0     0   512   502  0.000000000E+00  0.000000000E+00 -3.349424380E+02  3.349424380E+02  0.000000000E+00  0.00000E+00  9.000E+00
      -6     2     1     2     0   502  1.878745769E+01 -7.164090922E+01  5.814324199E+02  6.111617469E+02  1.731173981E+02  0.00000E+00  9.000E+00
       6     2     1     2   507     0 -1.947512487E+02  2.540093671E+01 -1.581258445E+02  3.046952993E+02  1.710619369E+02  0.00000E+00  9.000E+00
     -24     2     3     3     0     0  3.737205791E+01 -7.451873258E+01  5.803410745E+02  5.917343753E+02  8.002559549E+01  0.00000E+00  9.000E+00
      24     2     4     4     0     0 -1.977604073E+02 -1.083068151E+01 -1.614800078E+02  2.678768514E+02  8.034757157E+01  0.00000E+00  9.000E+00
     -11     1     6     6     0     0 -1.087556794E+02  3.417257582E+01 -8.581782185E+01  1.426893875E+02  0.000000000E+00  0.00000E+00  9.000E+00
      12     1     6     6     0     0 -8.900472786E+01 -4.500325733E+01 -7.566218590E+01  1.251874639E+02  3.814697266E-06  0.00000E+00  9.000E+00
      13     1     5     5     0     0  3.643997420E+01 -1.747352272E+01  4.122240561E+02  4.142002754E+02  0.000000000E+00  0.00000E+00  9.000E+00
     -14     1     5     5     0     0  9.320837139E-01 -5.704520986E+01  1.681170184E+02  1.775340999E+02  1.907348633E-06  0.00000E+00  9.000E+00
       5     1     4     4   507     0  3.009158577E+00  3.623161822E+01  3.354163217E+00  3.681844789E+01  4.750000000E+00  0.00000E+00  9.000E+00
      -5     1     3     3     0   502 -1.858460022E+01  2.877823362E+00  1.091345389E+00  1.942737160E+01  4.750000000E+00  0.00000E+00  9.000E+00
       1     1     1     2   512     0  1.759637910E+02  4.623997251E+01  4.663222398E+00  1.819976276E+02  0.000000000E+00  0.00000E+00  9.000E+00
#rwgt            2          18   4.1226328883077430E-002           1       29825           0           1           0
<weights>
0.13550E+02
</weights>
</event>
<event>
     14  10001  1.35503E+01  1.57830E+01 -1.00000E+00  7.52306E-01
      21    -1     0     0   513   501  0.000000000E+00  0.000000000E+00  7.330881843E+02  7.330881843E+02  0.000000000E+00  0.00000E+00  9.000E+00
      21    -1     0     0   507   502  0.000000000E+00  0.000000000E+00 -6.011276042E+01  6.011276042E+01  0.000000000E+00  0.00000E+00  9.000E+00
      -6     2     1     2     0   501 -1.369325788E+01  7.561193719E+00  5.227145351E+02  5.504292200E+02  1.717473845E+02  0.00000E+00  9.000E+00
       6     2     1     2   507     0  2.515057542E+01  3.293861341E+00  1.307874229E+02  2.177054482E+02  1.721827843E+02  0.00000E+00  9.000E+00
     -24     2     3     3     0     0 -3.826133877E+01  6.279557829E+01  3.910473581E+02  4.054697918E+02  7.797756773E+01  0.00000E+00  9.000E+00
      24     2     4     4     0     0  2.939858529E+01 -4.354532447E+00  1.186892873E+01  8.679201815E+01  8.067678833E+01  0.00000E+00  9.000E+00
     -11     1     6     6     0     0  2.697976603E+01 -2.092573593E+01 -2.760855830E+01  4.390930073E+01  0.000000000E+00  0.00000E+00  9.000E+00
      12     1     6     6     0     0  2.418819257E+00  1.657120348E+01  3.947748703E+01  4.288271742E+01  4.768371582E-07  0.00000E+00  9.000E+00
      13     1     5     5     0     0  9.782948034E+00  2.492558617E+01  3.429424696E+01  4.350961150E+01  0.000000000E+00  0.00000E+00  9.000E+00
     -14     1     5     5     0     0 -4.804428681E+01  3.786999212E+01  3.567531111E+02  3.619601803E+02  6.607249480E-06  0.00000E+00  9.000E+00
       5     1     4     4   511     0 -1.091538793E+01 -1.920212870E+01  2.856744555E+01  3.642154426E+01  4.750000000E+00  0.00000E+00  9.000E+00
      -5     1     3     3     0   501  2.456808090E+01 -5.523438457E+01  1.316671770E+02  1.449594282E+02  4.750000000E+00  0.00000E+00  9.000E+00
      21     1     4     4   507   511  6.667378069E+00  2.685052249E+01  9.035104861E+01  9.449188575E+01  9.536743164E-07  0.00000E+00  9.000E+00
      21     1     1     2   513   502 -1.145731755E+01 -1.085505506E+01  1.947346591E+01  2.506627655E+01  0.000000000E+00  0.00000E+00  9.000E+00
#rwgt            1          17  0.99155492250252431                1       31943           0        1001           0
<weights>
0.40453E+02
</weights>
</event>
<event>
     13  10001  1.35503E+01  1.64491E+02 -1.00000E+00  1.14828E-01
      21    -1     0     0   507   501  0.000000000E+00  0.000000000E+00  1.580042657E+03  1.580042657E+03  0.000000000E+00  0.00000E+00  9.000E+00
      21    -1     0     0   512   502  0.000000000E+00  0.000000000E+00 -2.212928384E+02  2.212928384E+02  0.000000000E+00  0.00000E+00  9.000E+00
      -6     2     1     2     0   502 -1.231323698E+02  3.904704010E+01 -1.771520026E+01  2.165849561E+02  1.729420800E+02  0.00000E+00  9.000E+00
       6     2     1     2   507     0 -9.602682264E+00  5.810509944E+01  1.405859179E+03  1.417654312E+03  1.727289900E+02  0.00000E+00  9.000E+00
     -24     2     3     3     0     0 -2.540997877E-01 -1.411322835E+01 -1.790982368E+01  8.261599040E+01  7.940650039E+01  0.00000E+00  9.000E+00
      24     2     4     4     0     0  4.426946542E+01  4.615384436E+01  5.234621176E+02  5.335207380E+02  8.088155777E+01  0.00000E+00  9.000E+00
     -11     1     6     6     0     0 -1.594931985E+01  1.564786874E+01  2.794937456E+02  2.803854319E+02  0.000000000E+00  0.00000E+00  9.000E+00
      12     1     6     6     0     0  6.021878527E+01  3.050597562E+01  2.439683720E+02  2.531353061E+02  5.394796609E-06  0.00000E+00  9.000E+00
      13     1     5     5     0     0 -4.439862184E+00  2.911433446E+01 -2.497556157E+01  3.861522398E+01  0.000000000E+00  0.00000E+00  9.000E+00
     -14     1     5     5     0     0  4.185762396E+00 -4.322756282E+01  7.065737883E+00  4.400076642E+01  8.513246093E-07  0.00000E+00  9.000E+00
       5     1     4     4   507     0 -5.387214768E+01  1.195125508E+01  8.823970615E+02  8.841335744E+02  4.750000000E+00  0.00000E+00  9.000E+00
      -5     1     3     3     0   502 -1.228782701E+02  5.316026845E+01  1.946234280E-01  1.339689657E+02  4.750000000E+00  0.00000E+00  9.000E+00
      21     1     1     2   512   501  1.327350521E+02 -9.715213954E+01 -2.939416046E+01  1.670962266E+02  3.600041597E-06  0.00000E+00  9.000E+00
#rwgt            2         113   5.3627657723309534                1       38721           0           1           0
<weights>
0.13550E+02
</weights>
</event>
<event>
     13  10001  1.35503E+01  1.22884E+01 -1.00000E+00  1.85950E-01
      -2    -1     0     0     0   511  0.000000000E+00  0.000000000E+00  3.892846260E+01  3.892846260E+01  0.000000000E+00  0.00000E+00  9.000E+00
       2    -1     0     0   507     0  0.000000000E+00  0.000000000E+00 -1.913448674E+03  1.913448674E+03  0.000000000E+00  0.00000E+00  9.000E+00
      -6     2     1     2     0   501 -7.195948634E+01  1.454602101E+02 -5.225772015E+02  5.738442244E+02  1.728392953E+02  0.00000E+00  9.000E+00
       6     2     1     2   507     0  8.424647022E+01 -1.452744729E+02 -1.339660162E+03  1.361158424E+03  1.728026799E+02  0.00000E+00  9.000E+00
     -24     2     3     3     0     0 -8.350112435E+01  1.592049649E+02 -5.110155865E+02  5.519727560E+02  1.059166422E+02  0.00000E+00  9.000E+00
      24     2     4     4     0     0  3.654565904E+01 -3.371068862E+01 -9.015220058E+02  9.065053128E+02  8.085764986E+01  0.00000E+00  9.000E+00
     -11     1     6     6     0     0 -6.324406412E+00 -4.643648206E+01 -5.796820484E+02  5.815734023E+02  0.000000000E+00  0.00000E+00  9.000E+00
      12     1     6     6     0     0  4.287006545E+01  1.272579344E+01 -3.218399573E+02  3.249319105E+02  0.000000000E+00  0.00000E+00  9.000E+00
      13     1     5     5     0     0 -9.700529236E+01  1.003428460E+02 -2.754640566E+02  3.088027849E+02  0.000000000E+00  0.00000E+00  9.000E+00
     -14     1     5     5     0     0  1.350416801E+01  5.886211890E+01 -2.355515300E+02  2.431699711E+02  6.031565972E-06  0.00000E+00  9.000E+00
       5     1     4     4   507     0  4.770081118E+01 -1.115637843E+02 -4.381381562E+02  4.546531115E+02  4.750000000E+00  0.00000E+00  9.000E+00
      -5     1     3     3     0   501  1.154163801E+01 -1.374475475E+01 -1.156161501E+01  2.187146846E+01  4.750000000E+00  0.00000E+00  9.000E+00
      21     1     1     2   501   511 -1.228698388E+01 -1.857371856E-01 -1.228284749E+01  1.737448743E+01  3.769728732E-07  0.00000E+00  9.000E+00
#rwgt            2          24   159.02340786479533                1       45928           0           1           0
<weights>
0.13550E+02
</weights>
</event>
<event>
     15  10001  1.35503E+01  2.96120E+01 -1.00000E+00  3.89721E-01
      21    -1     0     0   502   501  0.000000000E+00  0.000000000E+00  1.804265350E+03  1.804265350E+03  0.000000000E+00  0.00000E+00  9.000E+00
      21    -1     0     0   512   502  0.000000000E+00  0.000000000E+00 -8.109064019E+01  8.109064019E+01  0.000000000E+00  0.00000E+00  9.000E+00
      -6     2     1     2     0   501  5.026727816E+01  3.359482332E+01  6.947380526E+02  7.192973775E+02  1.762734924E+02  0.00000E+00  9.000E+00
       6     2     1     2   507     0 -7.353900605E+01 -5.190601545E+01  7.064655925E+01  2.078108656E+02  1.734710341E+02  0.00000E+00  9.000E+00
     -24     2     3     3     0     0  7.220906093E+01  5.323678841E+01  6.615228815E+02  6.723128820E+02  7.964787766E+01  0.00000E+00  9.000E+00
      24     2     4     4     0     0 -2.920907257E+01 -9.690189243E+01  6.167077980E+01  1.433972972E+02  8.072393140E+01  0.00000E+00  9.000E+00
     -11     1     6     6     0     0 -4.639807988E-01 -8.088488997E+01  9.126449734E+00  8.139946430E+01  0.000000000E+00  0.00000E+00  9.000E+00
      12     1     6     6     0     0 -2.874509177E+01 -1.601700246E+01  5.254433006E+01  6.199783295E+01  1.348699152E-06  0.00000E+00  9.000E+00
      13     1     5     5     0     0  4.253552131E+01 -1.532771530E+01  2.582806298E+02  2.622081104E+02  0.000000000E+00  0.00000E+00  9.000E+00
     -14     1     5     5     0     0  2.967353962E+01  6.856450371E+01  4.032422517E+02  4.101047716E+02  5.394796609E-06  0.00000E+00  9.000E+00
       5     1     4     4   513     0 -4.118219405E+01  4.358615311E+01  7.346715197E+00  6.059919615E+01  4.750000000E+00  0.00000E+00  9.000E+00
      -5     1     3     3     0   511 -2.180228965E+01 -2.042913711E+01  2.648885002E+01  4.021083377E+01  4.750000000E+00  0.00000E+00  9.000E+00
      21     1     1     2   512   507  2.327172789E+01  1.831119213E+01  9.577900976E+02  9.582477467E+02  1.078959322E-05  0.00000E+00  9.000E+00
      21     1     3     3   511   501 -1.394931131E-01  7.871720179E-01  6.726321113E+00  6.773661775E+00  1.192092896E-07  0.00000E+00  9.000E+00
      21     1     4     4   507   513 -3.147739432E+00  1.409723865E+00  1.629064254E+00  3.814372196E+00  1.228781231E-07  0.00000E+00  9.000E+00
#rwgt            1          17   7.9029279887829267                1       48814           0       11110           0
<weights>
0.17658E+02
</weights>
</event>
<event>
     15  10001 -1.35503E+01  4.79622E+00 -1.00000E+00  1.43847E-01
      21    -1     0     0   512   501  0.000000000E+00  0.000000000E+00  1.138376477E+02  1.138376477E+02  0.000000000E+00  0.00000E+00  9.000E+00
      21    -1     0     0   507   502  0.000000000E+00  0.000000000E+00 -4.186241307E+02  4.186241307E+02  0.000000000E+00  0.00000E+00  9.000E+00
      -6     2     1     2     0   501 -6.305342264E+01  5.158235034E-01 -2.112527184E+01  1.879735144E+02  1.758174190E+02  0.00000E+00  9.000E+00
       6     2     1     2   507     0  6.281484619E+01  4.274461797E+00 -2.415605383E+02  3.021152724E+02  1.701709971E+02  0.00000E+00  9.000E+00
     -24     2     3     3     0     0 -1.813695089E+01  3.900744972E+01 -4.069825770E+01  1.034038365E+02  8.476718175E+01  0.00000E+00  9.000E+00
      24     2     4     4     0     0 -1.608396498E+01  3.929483199E+01 -1.545304149E+02  1.792158069E+02  8.022392768E+01  0.00000E+00  9.000E+00
     -11     1     6     6     0     0 -1.696232089E+01 -6.613539350E+00 -1.209937525E+02  1.223558228E+02  0.000000000E+00  0.00000E+00  9.000E+00
      12     1     6     6     0     0  8.783559086E-01  4.590837134E+01 -3.353666240E+01  5.685998411E+01  2.132480600E-06  0.00000E+00  9.000E+00
      13     1     5     5     0     0  3.025753052E+01  2.818701750E+01 -3.365484598E+01  5.331674003E+01  0.000000000E+00  0.00000E+00  9.000E+00
     -14     1     5     5     0     0 -4.839448141E+01  1.082043222E+01 -7.043411714E+00  5.008709647E+01  6.583548198E-07  0.00000E+00  9.000E+00
       5     1     4     4   514     0  7.546477725E+01 -3.448671008E+01 -8.173055137E+01  1.165620492E+02  4.750000000E+00  0.00000E+00  9.000E+00
      -5     1     3     3     0   511 -7.129398574E+00 -3.803778282E+01  2.510989815E+01  4.637640273E+01  4.750000000E+00  0.00000E+00  9.000E+00
      21     1     3     3   511   501 -3.778707318E+01 -4.538433999E-01 -5.536912291E+00  3.819327520E+01  6.107658604E-07  0.00000E+00  9.000E+00
      21     1     1     2   512   502  2.385764526E-01 -4.790285300E+00 -4.210067287E+01  4.237299150E+01  8.259061849E-07  0.00000E+00  9.000E+00
      21     1     4     4   507   514  3.434033921E+00 -5.336601046E-01 -5.299571979E+00  6.337416290E+00  5.960464478E-08  0.00000E+00  9.000E+00
#rwgt            1          17  -9.0921372855703240                1       57881           0      110110           0
<weights>
-.15605E+02
</weights>
</event>
<event>
     15  10001  1.35503E+01  5.51536E+01 -1.00000E+00  5.14465E-01
      21    -1     0     0   502   501  0.000000000E+00  0.000000000E+00  5.992566295E+01  5.992566295E+01  0.000000000E+00  0.00000E+00  9.000E+00
      21    -1     0     0   512   502  0.000000000E+00  0.000000000E+00 -2.380505232E+03  2.380505232E+03  0.000000000E+00  0.00000E+00  9.000E+00
      -6     2     1     2     0   501 -1.966741645E+02 -1.104028002E+02 -4.050174412E+02  4.948976039E+02  1.732483924E+02  0.00000E+00  9.000E+00
       6     2     1     2   507     0  1.624759094E+02  1.536739621E+02 -1.510850020E+03  1.537080351E+03  1.730147800E+02  0.00000E+00  9.000E+00
     -24     2     3     3     0     0 -8.336271100E+01 -1.217586950E+02 -2.102379764E+02  2.688648938E+02  7.945944255E+01  0.00000E+00  9.000E+00
      24     2     4     4     0     0  1.094305855E+02  1.456197712E+02 -1.386738078E+03  1.401382805E+03  8.747055362E+01  0.00000E+00  9.000E+00
     -11     1     6     6     0     0  9.355179351E+01  6.269762298E+01 -6.339962082E+02  6.439208973E+02  0.000000000E+00  0.00000E+00  9.000E+00
      12     1     6     6     0     0  1.587879199E+01  8.292214821E+01 -7.527418697E+02  7.574619074E+02  1.078959322E-05  0.00000E+00  9.000E+00
      13     1     5     5     0     0 -6.599066410E+01 -2.983052790E+01 -1.104921745E+02  1.321103658E+02  0.000000000E+00  0.00000E+00  9.000E+00
     -14     1     5     5     0     0 -1.737204690E+01 -9.192816707E+01 -9.974580191E+01  1.367545279E+02  2.336015456E-06  0.00000E+00  9.000E+00
       5     1     4     4   511     0  4.846000112E+01  4.211267954E+00 -1.098797613E+02  1.202590160E+02  4.750000000E+00  0.00000E+00  9.000E+00
      -5     1     3     3     0   513 -1.134348575E+02  1.186132379E+01 -1.940681066E+02  2.251513944E+02  4.750000000E+00  0.00000E+00  9.000E+00
      21     1     1     2   512   507  3.419825511E+01 -4.327116199E+01 -4.047121078E+02  4.084529402E+02  5.394796609E-06  0.00000E+00  9.000E+00
      21     1     4     4   507   511  4.585322723E+00  3.842922996E+00 -1.423218082E+01  1.543853013E+01  2.920019320E-07  0.00000E+00  9.000E+00
      21     1     3     3   513   501  1.234040252E-01 -5.054289738E-01 -7.113581756E-01  8.813157521E-01  1.053671213E-08  0.00000E+00  9.000E+00
#rwgt            1          17   14.243414615151661                1       75746           0       11011           0
<weights>
0.24147E+02
</weights>
</event>
<event>
     15  10001  1.35503E+01  4.18775E+01 -1.00000E+00  2.04710E-01
      21    -1     0     0   502   501  0.000000000E+00  0.000000000E+00  1.244566764E+02  1.244566764E+02  0.000000000E+00  0.00000E+00  9.000E+00
      -3    -1     0     0     0   502  0.000000000E+00  0.000000000E+00 -7.152090615E+02  7.152090615E+02  0.000000000E+00  0.00000E+00  9.000E+00
      -6     2     1     2     0   501  5.633068826E+01 -2.603644232E+01 -9.342485931E+00  1.819195655E+02  1.707524626E+02  0.00000E+00  9.000E+00
       6     2     1     2   507     0 -3.231250762E+01  6.034170455E+01 -1.931085038E+02  2.671931060E+02  1.715110557E+02  0.00000E+00  9.000E+00
     -24     2     3     3     0     0 -1.377055171E+01  3.939225574E+01 -5.761878386E+01  7.299805450E+01  1.635279186E+01  0.00000E+00  9.000E+00
      24     2     4     4     0     0 -2.135249780E+01  6.535497877E+01 -4.745396651E+01  1.209269834E+02  8.743142442E+01  0.00000E+00  9.000E+00
     -11     1     6     6     0     0  3.422782859E+01  2.515176660E+01 -2.126689841E+01  4.750196397E+01  0.000000000E+00  0.00000E+00  9.000E+00
      12     1     6     6     0     0 -5.558032639E+01  4.020321217E+01 -2.618706810E+01  7.342501948E+01  2.158972058E-06  0.00000E+00  9.000E+00
      13     1     5     5     0     0 -3.662052163E+00  2.441331361E+01 -4.369078080E+01  5.018271450E+01  0.000000000E+00  0.00000E+00  9.000E+00
     -14     1     5     5     0     0 -1.010849955E+01  1.497894213E+01 -1.392800305E+01  2.281534000E+01  5.331201500E-07  0.00000E+00  9.000E+00
       5     1     4     4   511     0 -9.226340755E+00 -3.443857941E+00 -1.128975059E+02  1.134257240E+02  4.750000000E+00  0.00000E+00  9.000E+00
      -5     1     3     3     0   512  5.848841659E+01 -4.893467532E+01  4.443021726E+01  8.838610767E+01  4.750000000E+00  0.00000E+00  9.000E+00
      -3     1     1     2     0   507 -2.401818064E+01 -3.430526222E+01 -3.883013953E+02  3.905530664E+02  0.000000000E+00  0.00000E+00  9.000E+00
      21     1     3     3   512   501  1.161282339E+01 -1.649402274E+01  3.846080669E+00  2.053540332E+01  1.737759082E-07  0.00000E+00  9.000E+00
      21     1     4     4   507   511 -1.733669066E+00 -1.569416281E+00 -3.275703136E+01  3.284039859E+01  6.743495762E-07  0.00000E+00  9.000E+00
#rwgt            1          17   4.7335202095965814                1       84379           0       11110           0
<weights>
0.11068E+02
</weights>
</event>
<event>
     15  10001 -1.35503E+01  8.60697E+01 -1.00000E+00  3.62586E-01
      21    -1     0     0   511   501  0.000000000E+00  0.000000000E+00  1.083066827E+02  1.083066827E+02  0.000000000E+00  0.00000E+00  9.000E+00
      21    -1     0     0   501   502  0.000000000E+00  0.000000000E+00 -5.589271044E+02  5.589271044E+02  0.000000000E+00  0.00000E+00  9.000E+00
      -6     2     1     2     0   502  6.031595458E+01 -5.131781878E+01 -6.166212067E+01  1.449672949E+02  1.046028994E+02  0.00000E+00  9.000E+00
       6     2     1     2   507     0  2.503872025E+01  4.024666262E+01 -3.980892851E+02  4.357138152E+02  1.706596569E+02  0.00000E+00  9.000E+00
     -24     2     3     3     0     0  6.216099480E+01 -4.132535522E+01 -3.073895897E+01  1.114552609E+02  7.684801438E+01  0.00000E+00  9.000E+00
      24     2     4     4     0     0 -1.455318074E+01  3.647168438E+01 -1.051651251E+02  1.396530596E+02  8.307403136E+01  0.00000E+00  9.000E+00
     -11     1     6     6     0     0 -6.101833234E+00 -2.708637245E+01 -3.113614102E+01  4.171766076E+01  0.000000000E+00  0.00000E+00  9.000E+00
      12     1     6     6     0     0 -8.451347510E+00  6.355805683E+01 -7.402898406E+01  9.793539883E+01  9.536743164E-07  0.00000E+00  9.000E+00
      13     1     5     5     0     0  9.415591307E+00  2.291831437E+00 -4.110431168E+01  4.223115307E+01  0.000000000E+00  0.00000E+00  9.000E+00
     -14     1     5     5     0     0  5.274540349E+01 -4.361718666E+01  1.036535271E+01  6.922410778E+01  3.365419916E-06  0.00000E+00  9.000E+00
       5     1     4     4   513     0  3.401984607E+01 -2.606294087E+00 -2.411487120E+02  2.435968113E+02  4.750000000E+00  0.00000E+00  9.000E+00
      -5     1     3     3     0   512 -3.500006293E+00 -9.474178995E+00 -2.737001472E+01  2.955825295E+01  4.750000000E+00  0.00000E+00  9.000E+00
      21     1     1     2   511   507 -8.535467483E+01  1.107115616E+01  9.130984086E+00  8.655267694E+01  6.307962682E-07  0.00000E+00  9.000E+00
      21     1     4     4   507   513  5.572054924E+00  6.381272324E+00 -5.177544806E+01  5.246394433E+01  6.743495762E-07  0.00000E+00  9.000E+00
      21     1     3     3   512   502  1.654966077E+00 -5.182845602E-01 -3.553146978E+00  3.953781108E+00  5.960464478E-08  0.00000E+00  9.000E+00
#rwgt            1          17  -2.1892375715989556                1       97153           0       11011           0
<weights>
-.20253E+02
</weights>
</event>
<event>
     14  10001  1.35503E+01  4.20814E+01 -1.00000E+00  1.52717E-01
       1    -1     0     0   512     0  0.000000000E+00  0.000000000E+00  3.095765165E+02  3.095765165E+02  0.000000000E+00  0.00000E+00  9.000E+00
      -1    -1     0     0     0   502  0.000000000E+00  0.000000000E+00 -5.136334852E+02  5.136334852E+02  0.000000000E+00  0.00000E+00  9.000E+00
      -6     2     1     2     0   502  6.620009714E+01 -5.252618575E+01  2.310849881E+02  3.011996697E+02  1.737225266E+02  0.00000E+00  9.000E+00
       6     2     1     2   507     0 -1.072110328E+02  4.309507742E+01 -2.192201002E+02  3.020260353E+02  1.726582821E+02  0.00000E+00  9.000E+00
     -24     2     3     3     0     0 -5.375013096E+00  1.698321132E+01  1.246332938E+02  1.490738627E+02  7.982630135E+01  0.00000E+00  9.000E+00
      24     2     4     4     0     0 -1.378162564E+02  5.824123065E+01 -2.000189356E+02  2.625629779E+02  8.090971099E+01  0.00000E+00  9.000E+00
     -11     1     6     6     0     0 -1.149714426E+01 -1.650239178E+01 -4.386833524E+01  4.825913485E+01  0.000000000E+00  0.00000E+00  9.000E+00
      12     1     6     6     0     0 -1.263191121E+02  7.474362243E+01 -1.561506003E+02  2.143038431E+02  5.046370146E-06  0.00000E+00  9.000E+00
      13     1     5     5     0     0 -1.746713510E+01  2.648684301E+01  9.787942995E+00  3.320327528E+01  0.000000000E+00  0.00000E+00  9.000E+00
     -14     1     5     5     0     0  1.209212201E+01 -9.503631691E+00  1.148453508E+02  1.158705874E+02  1.907348633E-06  0.00000E+00  9.000E+00
       5     1     4     4   507     0  3.060522359E+01 -1.514615323E+01 -1.920116463E+01  3.946305731E+01  4.750000000E+00  0.00000E+00  9.000E+00
      -5     1     3     3     0   511  5.092597410E+01 -4.307306638E+01  4.061582505E+01  7.823651085E+01  4.750000000E+00  0.00000E+00  9.000E+00
      21     1     1     2   512   507  4.101093564E+01  9.431108326E+00 -2.159218567E+02  2.199842968E+02  3.814697266E-06  0.00000E+00  9.000E+00
      21     1     3     3   511   502  2.064913614E+01 -2.643633069E+01  6.583586927E+01  7.388929615E+01  1.651812370E-06  0.00000E+00  9.000E+00
#rwgt            1           4   7.2378505326520085E-002           1      103054           0         111           0
<weights>
0.15285E+02
</weights>
</event>
<event>
     15  10001  1.35503E+01  5.82825E+01 -1.00000E+00  3.53924E-01
      21    -1     0     0   511   501  0.000000000E+00  0.000000000E+00  8.293869270E+02  8.293869270E+02  0.000000000E+00  0.00000E+00  9.000E+00
      21    -1     0     0   501   502  0.000000000E+00  0.000000000E+00 -8.779543681E+01  8.779543681E+01  0.000000000E+00  0.00000E+00  9.000E+00
      -6     2     1     2     0   502 -2.319604514E+00  9.746135553E+01  2.270696070E+02  3.013946896E+02  1.725516042E+02  0.00000E+00  9.000E+00
       6     2     1     2   507     0 -5.328053406E+01 -7.998366734E+01  5.208898622E+02  5.571583628E+02  1.728091153E+02  0.00000E+00  9.000E+00
     -24     2     3     3     0     0 -1.510591340E+01  1.322369364E+02  2.047929824E+02  2.571834531E+02  8.055039983E+01  0.00000E+00  9.000E+00
      24     2     4     4     0     0 -5.387072003E+01 -3.917449638E+01  4.650331124E+02  4.787112167E+02  9.204312973E+01  0.00000E+00  9.000E+00
     -11     1     6     6     0     0  2.964846209E+00  2.527078994E+00 -3.298152701E+00  5.104336639E+00  0.000000000E+00  0.00000E+00  9.000E+00
      12     1     6     6     0     0 -5.683556624E+01 -4.170157537E+01  4.683312651E+02  4.736068801E+02  5.394796609E-06  0.00000E+00  9.000E+00
      13     1     5     5     0     0 -2.826966629E+01  6.276344194E+01  4.444685081E+01  8.193867355E+01  0.000000000E+00  0.00000E+00  9.000E+00
     -14     1     5     5     0     0  1.316375290E+01  6.947349445E+01  1.603461316E+02  1.752447795E+02  1.907348633E-06  0.00000E+00  9.000E+00
       5     1     4     4   512     0  1.060542443E+01 -2.089444194E+01  7.267560936E+00  2.498865089E+01  4.750000000E+00  0.00000E+00  9.000E+00
      -5     1     3     3     0   513  1.049599510E+01 -3.296348614E+01  1.875680460E+01  3.963757751E+01  4.750000000E+00  0.00000E+00  9.000E+00
      21     1     1     2   511   507  5.560013857E+01 -1.747768819E+01 -6.367979055E+00  5.862931136E+01  1.656108378E-06  0.00000E+00  9.000E+00
      21     1     4     4   507   512 -1.001523846E+01 -1.991472902E+01  4.858918886E+01  5.345849519E+01  6.743495762E-07  0.00000E+00  9.000E+00
      21     1     3     3   513   502  2.290313780E+00 -1.812094723E+00  3.519819994E+00  4.573659070E+00  5.960464478E-08  0.00000E+00  9.000E+00
#rwgt            1          17   227.10839787148305                1      106701           0       11011           0
<weights>
0.16435E+02
</weights>
</event>
<event>
     15  10001  1.35503E+01  3.94085E+01 -1.00000E+00  2.21378E-01
       3    -1     0     0   502     0  0.000000000E+00  0.000000000E+00  9.934733200E+01  9.934733200E+01  0.000000000E+00  0.00000E+00  9.000E+00
      21    -1     0     0   507   502  0.000000000E+00  0.000000000E+00 -9.883988047E+02  9.883988047E+02  0.000000000E+00  0.00000E+00  9.000E+00
      -6     2     1     2     0   501  7.884627184E+01  1.754703439E+02 -2.456780708E+02  3.565038795E+02  1.724259998E+02  0.00000E+00  9.000E+00
       6     2     1     2   507     0 -6.411331103E+01 -2.120212745E+02 -6.302838067E+02  6.897167450E+02  1.714292093E+02  0.00000E+00  9.000E+00
     -24     2     3     3     0     0  8.916350470E+01  5.283839752E+01 -1.075470455E+02  1.709765585E+02  8.321411976E+01  0.00000E+00  9.000E+00
      24     2     4     4     0     0 -1.045523102E+02 -1.679232544E+02 -4.205242562E+02  4.715112800E+02  7.970465602E+01  0.00000E+00  9.000E+00
     -11     1     6     6     0     0 -2.032060027E+01 -5.929967404E+01 -6.482014206E+01  9.017221830E+01  0.000000000E+00  0.00000E+00  9.000E+00
      12     1     6     6     0     0 -8.423170991E+01 -1.086235803E+02 -3.557041142E+02  3.813390617E+02  0.000000000E+00  0.00000E+00  9.000E+00
      13     1     5     5     0     0  1.049673301E+01  2.893866914E+01 -7.758699564E+01  8.347077253E+01  0.000000000E+00  0.00000E+00  9.000E+00
     -14     1     5     5     0     0  7.866677169E+01  2.389972838E+01 -2.996004986E+01  8.750578594E+01  2.336015456E-06  0.00000E+00  9.000E+00
       5     1     4     4   512     0  3.149439925E+01 -3.473201193E+01 -1.609737508E+02  1.677299043E+02  4.750000000E+00  0.00000E+00  9.000E+00
      -5     1     3     3     0   511 -1.315946410E+01  9.404495613E+01 -1.082258914E+02  1.440591245E+02  4.750000000E+00  0.00000E+00  9.000E+00
       3     1     1     2   501     0 -1.473296081E+01  3.655093062E+01 -1.308959511E+01  4.152551220E+01  0.000000000E+00  0.00000E+00  9.000E+00
      21     1     3     3   511   501  2.842231244E+00  2.858699024E+01 -2.990513391E+01  4.146819653E+01  8.259061849E-07  0.00000E+00  9.000E+00
      21     1     4     4   507   512  8.944599905E+00 -9.366008221E+00 -4.878579966E+01  5.047556068E+01  0.000000000E+00  0.00000E+00  9.000E+00
#rwgt            1          17   59.314709197490650                1      110938           0       11110           0
<weights>
0.13787E+02
</weights>
</event>
<event>
     14  10001  1.35503E+01  1.70211E+01 -1.00000E+00  7.45937E-01
      21    -1     0     0   502   501  0.000000000E+00  0.000000000E+00  4.874513200E+02  4.874513200E+02  0.000000000E+00  0.00000E+00  9.000E+00
      21    -1     0     0   511   502  0.000000000E+00  0.000000000E+00 -8.359398209E+01  8.359398209E+01  0.000000000E+00  0.00000E+00  9.000E+00
      -6     2     1     2     0   501  4.398749007E+01  4.241624517E+01  2.076359649E+02  2.770274061E+02  1.729087988E+02  0.00000E+00  9.000E+00
       6     2     1     2   507     0 -3.791206334E+01 -2.651632875E+01  1.214057606E+02  2.172904953E+02  1.741704923E+02  0.00000E+00  9.000E+00
     -24     2     3     3     0     0  9.702366616E+00  6.007356627E+01  4.554309909E+01  1.103423429E+02  7.998930851E+01  0.00000E+00  9.000E+00
      24     2     4     4     0     0 -3.419432604E+01 -3.563265092E+01 -4.279517463E-01  9.462259300E+01  8.071130168E+01  0.00000E+00  9.000E+00
     -11     1     6     6     0     0 -2.340878716E+01 -3.111441972E+01  3.802913087E+01  5.442695312E+01  0.000000000E+00  0.00000E+00  9.000E+00
      12     1     6     6     0     0 -1.078553888E+01 -4.518231207E+00 -3.845708262E+01  4.019563988E+01  2.900487199E-06  0.00000E+00  9.000E+00
      13     1     5     5     0     0  3.508643376E+01  6.240465019E+01  2.017681397E+01  7.438079067E+01  0.000000000E+00  0.00000E+00  9.000E+00
     -14     1     5     5     0     0 -2.538406714E+01 -2.331083918E+00  2.536628512E+01  3.596155221E+01  4.768371582E-07  0.00000E+00  9.000E+00
       5     1     4     4   512     0 -4.062358744E+00  8.301592488E+00  1.210220110E+02  1.214673160E+02  4.750000000E+00  0.00000E+00  9.000E+00
      -5     1     3     3     0   501  3.428512346E+01 -1.765732110E+01  1.620928658E+02  1.666850633E+02  4.750000000E+00  0.00000E+00  9.000E+00
      21     1     1     2   511   507 -6.075426736E+00 -1.589991642E+01  7.481561245E+01  7.672740070E+01  1.348699152E-06  0.00000E+00  9.000E+00
      21     1     4     4   507   512  3.446214430E-01  8.147296895E-01  8.117013842E-01  1.200586333E+00  2.580956828E-08  0.00000E+00  9.000E+00
#rwgt            1          17   5.7624348032732575                1      118990           0         110           0
<weights>
-.18465E+01
</weights>
</event>
<event>
     15  10001  1.35503E+01  7.88215E+01 -1.00000E+00  4.21664E-01
      21    -1     0     0   502   501  0.000000000E+00  0.000000000E+00  1.538574007E+02  1.538574007E+02  0.000000000E+00  0.00000E+00  9.000E+00
       2    -1     0     0   507     0  0.000000000E+00  0.000000000E+00 -4.133247610E+02  4.133247610E+02  0.000000000E+00  0.00000E+00  9.000E+00
      -6     2     1     2     0   501 -1.227425758E+01 -3.637491867E+01 -1.405773951E+02  2.261595251E+02  1.729518277E+02  0.00000E+00  9.000E+00
       6     2     1     2   507     0 -4.356228510E+01  9.200857593E+01 -1.617206753E+01  2.115475817E+02  1.847365498E+02  0.00000E+00  9.000E+00
     -24     2     3     3     0     0  3.556638777E+01 -4.564047752E+01 -1.451077934E+02  1.752618561E+02  7.945077327E+01  0.00000E+00  9.000E+00
      24     2     4     4     0     0  3.321377550E+01  9.670687571E+01 -2.526333455E+01  1.323265276E+02  8.010430163E+01  0.00000E+00  9.000E+00
     -11     1     6     6     0     0  8.405693033E-01  2.259261578E+01 -4.385627727E+01  4.934071240E+01  0.000000000E+00  0.00000E+00  9.000E+00
      12     1     6     6     0     0  3.237320620E+01  7.411425993E+01  1.859294272E+01  8.298581520E+01  3.135906801E-06  0.00000E+00  9.000E+00
      13     1     5     5     0     0  4.108156378E+00 -6.242447415E+01 -8.916363057E+01  1.089212786E+02  0.000000000E+00  0.00000E+00  9.000E+00
     -14     1     5     5     0     0  3.145823139E+01  1.678399663E+01 -5.594416279E+01  6.634057744E+01  1.348699152E-06  0.00000E+00  9.000E+00
       5     1     4     4   511     0 -5.500484987E+01 -1.037194182E+01  5.607159736E+00  5.645452530E+01  4.750000000E+00  0.00000E+00  9.000E+00
      -5     1     3     3     0   513 -4.792810554E+01  8.765341622E+00  6.021031500E+00  4.932291389E+01  4.750000000E+00  0.00000E+00  9.000E+00
       2     1     1     2   502     0  5.583654267E+01 -5.563365726E+01 -1.027178977E+02  1.294750549E+02  0.000000000E+00  0.00000E+00  9.000E+00
      21     1     4     4   507   511 -2.177121073E+01  5.673642038E+00  3.484107284E+00  2.276652881E+01  2.827296549E-07  0.00000E+00  9.000E+00
      21     1     3     3   513   501  8.746018645E-02  5.002172288E-01 -1.490633193E+00  1.574755180E+00  2.107342426E-08  0.00000E+00  9.000E+00
#rwgt            1          17   27.978540063966694                1      128858           0       11011           0
<weights>
0.14083E+02
</weights>
</event>
<event>
     15  10001 -1.35503E+01  1.92966E+01 -1.00000E+00  3.35852E-01
      21    -1     0     0   511   501  0.000000000E+00  0.000000000E+00  6.086981976E+02  6.086981976E+02  0.000000000E+00  0.00000E+00  9.000E+00
      21    -1     0     0   501   502  0.000000000E+00  0.000000000E+00 -3.831642370E+02  3.831642370E+02  0.000000000E+00  0.00000E+00  9.000E+00
      -6     2     1     2     0   502 -6.765511686E+01 -1.262137135E+02 -2.985506447E+02  3.726359902E+02  1.709326692E+02  0.00000E+00  9.000E+00
       6     2     1     2   507     0  8.498148392E+01  1.177192957E+02  5.457668715E+02  5.902009591E+02  1.714526435E+02  0.00000E+00  9.000E+00
     -24     2     3     3     0     0 -1.011736777E+02 -1.309396004E+02 -2.260883664E+02  2.918465621E+02  8.171397907E+01  0.00000E+00  9.000E+00
      24     2     4     4     0     0  1.524738265E+01 -3.518613481E+00  2.616506957E+02  2.733225380E+02  7.745488945E+01  0.00000E+00  9.000E+00
     -11     1     6     6     0     0 -2.906474217E+01  1.278649122E+01  1.004723382E+02  1.053705098E+02  0.000000000E+00  0.00000E+00  9.000E+00
      12     1     6     6     0     0  4.431212482E+01 -1.630510470E+01  1.611783576E+02  1.679520283E+02  1.907348633E-06  0.00000E+00  9.000E+00
      13     1     5     5     0     0 -8.863391967E+01 -4.849750840E+01 -1.291793098E+02  1.639977869E+02  0.000000000E+00  0.00000E+00  9.000E+00
     -14     1     5     5     0     0 -1.253975805E+01 -8.244209196E+01 -9.690905660E+01  1.278487752E+02  1.907348633E-06  0.00000E+00  9.000E+00
       5     1     4     4   514     0  7.006387540E+01  1.205305416E+02  2.830476976E+02  3.155552562E+02  4.750000000E+00  0.00000E+00  9.000E+00
      -5     1     3     3     0   512  3.342242723E+01  4.589260970E+00 -6.554698526E+01  7.387211744E+01  4.750000000E+00  0.00000E+00  9.000E+00
      21     1     1     2   511   507 -1.732636706E+01  8.494417808E+00 -2.168226623E+01  2.902548532E+01  5.840038640E-07  0.00000E+00  9.000E+00
      21     1     3     3   512   502  9.613361802E-02  1.366259088E-01 -6.915293035E+00  6.917310610E+00  1.685873940E-07  0.00000E+00  9.000E+00
      21     1     4     4   507   514 -3.297741256E-01  7.073675077E-01  1.068478165E+00  1.323164900E+00  0.000000000E+00  0.00000E+00  9.000E+00
#rwgt            1          17  -11.484185743679953                1      135527           0       11110           0
<weights>
-.14025E+02
</weights>
</event>
<event>
     14  10001 -1.35503E+01  6.98749E+01 -1.00000E+00  3.97433E-01
       1    -1     0     0   502     0  0.000000000E+00  0.000000000E+00  1.422217297E+03  1.422217297E+03  0.000000000E+00  0.00000E+00  9.000E+00
      21    -1     0     0   507   502  0.000000000E+00  0.000000000E+00 -1.310002616E+03  1.310002616E+03  0.000000000E+00  0.00000E+00  9.000E+00
      -6     2     1     2     0   501  1.197719875E+02  1.175190996E+02 -8.504921733E+01  2.557733671E+02  1.732933299E+02  0.00000E+00  9.000E+00
       6     2     1     2   507     0 -1.787910680E+02 -8.011248497E+01 -1.124095570E+03  1.153240836E+03  1.673000901E+02  0.00000E+00  9.000E+00
     -24     2     3     3     0     0  9.828284250E+01  4.719842255E+01 -1.134467877E+02  1.767268046E+02  8.046727043E+01  0.00000E+00  9.000E+00
      24     2     4     4     0     0 -1.580742330E+02 -1.174402107E+02 -9.221222496E+02  9.467503257E+02  8.512972380E+01  0.00000E+00  9.000E+00
     -11     1     6     6     0     0 -4.552759551E+01 -5.858161490E+01 -1.953656025E+02  2.089791525E+02  0.000000000E+00  0.00000E+00  9.000E+00
      12     1     6     6     0     0 -1.125466375E+02 -5.885859578E+01 -7.267566471E+02  7.377711732E+02  1.078959322E-05  0.00000E+00  9.000E+00
      13     1     5     5     0     0 -9.355123913E+00 -6.869324055E+00 -2.411311947E+01  2.676095079E+01  0.000000000E+00  0.00000E+00  9.000E+00
     -14     1     5     5     0     0  1.076379664E+02  5.406774660E+01 -8.933366823E+01  1.499658538E+02  3.438521648E-06  0.00000E+00  9.000E+00
       5     1     4     4   507     0 -2.071683501E+01  3.732772571E+01 -2.019733204E+02  2.064905107E+02  4.750000000E+00  0.00000E+00  9.000E+00
      -5     1     3     3     0   511  1.738264849E+01  5.808064292E+01  2.233860823E+01  6.478497873E+01  4.750000000E+00  0.00000E+00  9.000E+00
       1     1     1     2   501     0  5.901908046E+01 -3.740661465E+01  1.321359468E+03  1.323205710E+03  0.000000000E+00  0.00000E+00  9.000E+00
      21     1     3     3   511   501  4.106496535E+00  1.224003414E+01  6.058962146E+00  1.426158378E+01  2.064765462E-07  0.00000E+00  9.000E+00
#rwgt            1          17  -103.44832828610683                1      144612           0         111           0
<weights>
-.14651E+02
</weights>
</event>
<event>
     15  10001  1.35503E+01  1.29958E+01 -1.00000E+00  1.60732E-01
       2    -1     0     0   507     0  0.000000000E+00  0.000000000E+00  6.210039942E+02  6.210039942E+02  0.000000000E+00  0.00000E+00  9.000E+00
      21    -1     0     0   501   502  0.000000000E+00  0.000000000E+00 -5.615806447E+02  5.615806447E+02  0.000000000E+00  0.00000E+00  9.000E+00
      -6     2     1     2     0   502  1.653985925E+02  9.020819104E+01 -3.822082929E+02  4.535779461E+02  1.554205967E+02  0.00000E+00  9.000E+00
       6     2     1     2   507     0 -1.689973365E+02 -1.026957885E+02 -2.395098461E+01  2.632427251E+02  1.720946191E+02  0.00000E+00  9.000E+00
     -24     2     3     3     0     0  1.505673789E+02  9.093258356E+01 -2.332068576E+02  3.033353712E+02  8.177798386E+01  0.00000E+00  9.000E+00
      24     2     4     4     0     0 -1.908677290E+02 -8.520622498E+01 -3.854978999E+01  2.281292990E+02  8.286314019E+01  0.00000E+00  9.000E+00
     -11     1     6     6     0     0 -6.223773393E+00 -2.633785853E+01  9.107372510E+00  2.855455097E+01  0.000000000E+00  0.00000E+00  9.000E+00
      12     1     6     6     0     0 -1.846439556E+02 -5.886836645E+01 -4.765716249E+01  1.995747480E+02  4.862803949E-06  0.00000E+00  9.000E+00
      13     1     5     5     0     0  5.894801259E+01  3.808117584E+01 -3.442972030E+01  7.816936600E+01  0.000000000E+00  0.00000E+00  9.000E+00
     -14     1     5     5     0     0  9.161936632E+01  5.285140772E+01 -1.987771373E+02  2.251660052E+02  4.672030912E-06  0.00000E+00  9.000E+00
       5     1     4     4   512     0  2.404532526E+01 -1.597572278E+01  1.296945775E+01  3.200266738E+01  4.750000000E+00  0.00000E+00  9.000E+00
      -5     1     3     3     0   511  1.388223422E+00  4.287803737E-02 -2.316097868E+01  2.368380114E+01  4.750000000E+00  0.00000E+00  9.000E+00
      21     1     3     3   511   502  1.344299018E+01 -7.672705597E-01 -1.258404566E+02  1.265587737E+02  1.907348633E-06  0.00000E+00  9.000E+00
       2     1     1     2   501     0  3.598744006E+00  1.248759745E+01  4.655826270E+02  4.657639677E+02  0.000000000E+00  0.00000E+00  9.000E+00
      21     1     4     4   507   512 -2.174932807E+00 -1.513840729E+00  1.629347622E+00  3.110758773E+00  2.980232239E-08  0.00000E+00  9.000E+00
#rwgt            1          17   20.339044953067990                1      158159           0      110110           0
<weights>
0.10277E+02
</weights>
</event>
<event>
     15  10001  1.35503E+01  1.00048E+02 -1.00000E+00  3.87825E-01
       1    -1     0     0   507     0  0.000000000E+00  0.000000000E+00  3.799202428E+02  3.799202428E+02  0.000000000E+00  0.00000E+00  9.000E+00
      21    -1     0     0   501   502  0.000000000E+00  0.000000000E+00 -3.368227626E+02  3.368227626E+02  0.000000000E+00  0.00000E+00  9.000E+00
      -6     2     1     2     0   502 -1.773230150E+02 -1.205568793E+02 -1.266693230E+02  3.029615408E+02  1.725200423E+02  0.00000E+00  9.000E+00
       6     2     1     2   507     0  2.103460580E+02  2.611578540E+01  9.772530780E+01  2.904947312E+02  1.729435014E+02  0.00000E+00  9.000E+00
     -24     2     3     3     0     0 -6.419335438E+01 -5.222494402E+01  8.616986773E-01  1.190853077E+02  8.562906324E+01  0.00000E+00  9.000E+00
      24     2     4     4     0     0  1.310450165E+02  3.406838251E+01 -7.970683542E-02  1.574127872E+02  8.028280132E+01  0.00000E+00  9.000E+00
     -11     1     6     6     0     0  3.592618063E+01 -8.919785648E+00  3.123564661E+01  4.843468437E+01  0.000000000E+00  0.00000E+00  9.000E+00
      12     1     6     6     0     0  9.511883589E+01  4.298816815E+01 -3.131535344E+01  1.089781029E+02  3.946529712E-06  0.00000E+00  9.000E+00
      13     1     5     5     0     0 -7.005496813E+01 -1.031434333E+01 -1.752246415E+01  7.294601420E+01  0.000000000E+00  0.00000E+00  9.000E+00
     -14     1     5     5     0     0  5.861613745E+00 -4.191060069E+01  1.838416283E+01  4.613929354E+01  1.815741803E-06  0.00000E+00  9.000E+00
       5     1     4     4   511     0  2.568563005E+01 -1.167455487E+01  6.261377680E+01  6.884108052E+01  4.750000000E+00  0.00000E+00  9.000E+00
      -5     1     3     3     0   513 -1.059847600E+02 -6.574494398E+01 -1.213771334E+02  1.740980701E+02  4.750000000E+00  0.00000E+00  9.000E+00
       1     1     1     2   501     0 -3.302304297E+01  9.444109387E+01  7.204149543E+01  1.232867334E+02  0.000000000E+00  0.00000E+00  9.000E+00
      21     1     4     4   507   511  5.361541143E+01  3.721957766E+00  3.519123783E+01  6.424086341E+01  9.536743164E-07  0.00000E+00  9.000E+00
      21     1     3     3   513   502 -7.144900607E+00 -2.586991263E+00 -6.153888336E+00  9.778162922E+00  1.460009660E-07  0.00000E+00  9.000E+00
#rwgt            1          17   4.3516443547551056                1      163742           0       11011           0
<weights>
0.10700E+01
</weights>
</event>
<event>
     15  10001  1.35503E+01  1.72412E+01 -1.00000E+00  2.33115E-01
       1    -1     0     0   511     0  0.000000000E+00  0.000000000E+00  1.102723641E+03  1.102723641E+03  0.000000000E+00  0.00000E+00  9.000E+00
      -1    -1     0     0     0   502  0.000000000E+00  0.000000000E+00 -3.537215238E+01  3.537215238E+01  0.000000000E+00  0.00000E+00  9.000E+00
      -6     2     1     2     0   502  1.180204967E+01 -5.116369820E+01  5.030463174E+02  5.341837964E+02  1.718712264E+02  0.00000E+00  9.000E+00
       6     2     1     2   507     0  5.025765592E+00  4.741070024E+01  3.905313734E+02  4.292849854E+02  1.717492716E+02  0.00000E+00  9.000E+00
     -24     2     3     3     0     0  7.031191220E+01 -1.614009705E+01  2.580681583E+02  2.796388930E+02  7.996542026E+01  0.00000E+00  9.000E+00
      24     2     4     4     0     0  3.580944381E+01  6.984995672E+01  1.584136682E+02  1.938118720E+02  7.941548178E+01  0.00000E+00  9.000E+00
     -11     1     6     6     0     0  4.931684339E+01  6.346288584E+01  1.597316957E+02  1.788124815E+02  0.000000000E+00  0.00000E+00  9.000E+00
      12     1     6     6     0     0 -1.350739958E+01  6.387070882E+00 -1.318027592E+00  1.499939047E+01  1.129346807E-06  0.00000E+00  9.000E+00
      13     1     5     5     0     0 -9.671750046E+00  1.477459948E+01  8.096548925E+01  8.286882398E+01  0.000000000E+00  0.00000E+00  9.000E+00
     -14     1     5     5     0     0  7.998366225E+01 -3.091469653E+01  1.771026690E+02  1.967700690E+02  1.907348633E-06  0.00000E+00  9.000E+00
       5     1     4     4   514     0 -3.103449015E+01 -2.087458292E+01  2.148569137E+02  2.181397343E+02  4.750000000E+00  0.00000E+00  9.000E+00
      -5     1     3     3     0   512 -4.539863825E+01 -3.177401251E+01  1.959335932E+02  2.036741508E+02  4.750000000E+00  0.00000E+00  9.000E+00
      21     1     1     2   511   507 -1.682781527E+01  3.752997954E+00  1.737737979E+02  1.746270117E+02  1.907348633E-06  0.00000E+00  9.000E+00
      21     1     3     3   512   502 -1.311122428E+01 -3.249588643E+00  4.904456592E+01  5.087075264E+01  6.743495762E-07  0.00000E+00  9.000E+00
      21     1     4     4   507   514  2.508119287E-01 -1.564673558E+00  1.726079147E+01  1.733337913E+01  2.384185791E-07  0.00000E+00  9.000E+00
#rwgt            1           4  0.39014368472746713                1      168877           0       11110           0
<weights>
0.14666E+02
</weights>
</event>
<event>
     15  10001  1.35503E+01  1.13610E+02 -1.00000E+00  3.71163E-01
      21    -1     0     0   507   501  0.000000000E+00  0.000000000E+00  6.679111452E+01  6.679111452E+01  0.000000000E+00  0.00000E+00  9.000E+00
      21    -1     0     0   501   512  0.000000000E+00  0.000000000E+00 -2.551463540E+03  2.551463540E+03  0.000000000E+00  0.00000E+00  9.000E+00
      -6     2     1     2     0   502 -4.942484616E-01  5.255531969E+01 -2.145101533E+02  2.805058894E+02  1.729353701E+02  0.00000E+00  9.000E+00
       6     2     1     2   507     0 -1.085987341E+02 -8.427234705E+01 -3.500678798E+02  4.142962119E+02  1.737766302E+02  0.00000E+00  9.000E+00
     -24     2     3     3     0     0 -5.861939079E+01  6.776924447E+01 -1.603419742E+02  1.982187862E+02  7.451332126E+01  0.00000E+00  9.000E+00
      24     2     4     4     0     0 -4.701845942E+01  2.440130234E+01 -1.303859627E+02  1.615113117E+02  7.924169019E+01  0.00000E+00  9.000E+00
     -11     1     6     6     0     0 -4.402840372E+01  1.445332835E+01 -1.399308267E+02  1.474043259E+02  0.000000000E+00  0.00000E+00  9.000E+00
      12     1     6     6     0     0 -2.990055700E+00  9.947973990E+00  9.544864011E+00  1.410698581E+01  1.316709640E-06  0.00000E+00  9.000E+00
      13     1     5     5     0     0 -4.197977501E+01  6.654793294E+01 -1.633064721E+02  1.812730888E+02  0.000000000E+00  0.00000E+00  9.000E+00
     -14     1     5     5     0     0 -1.663961578E+01  1.221311527E+00  2.964497852E+00  1.694569747E+01  1.537060375E-06  0.00000E+00  9.000E+00
       5     1     4     4   511     0 -4.396648671E+01 -7.661471444E+01 -1.533555974E+02  1.770405834E+02  4.750000000E+00  0.00000E+00  9.000E+00
      -5     1     3     3     0   513  5.860857906E+01 -1.560756939E+01 -5.440995964E+01  8.161842910E+01  4.750000000E+00  0.00000E+00  9.000E+00
      21     1     1     2   502   512  1.090929826E+02  3.171702737E+01 -1.920094393E+03  1.923452553E+03  5.285799584E-05  0.00000E+00  9.000E+00
      21     1     4     4   507   511 -1.761378799E+01 -3.205893495E+01 -6.632631970E+01  7.574431677E+01  1.348699152E-06  0.00000E+00  9.000E+00
      21     1     3     3   513   502 -4.834367322E-01  3.936446055E-01  2.417805870E-01  6.686740624E-01  6.006850115E-08  0.00000E+00  9.000E+00
#rwgt            1          17   20.920879606384094                1      174031           0       11011           0
<weights>
0.13857E+02
</weights>
</event>
<event>
     15  10001  1.35503E+01  3.08874E+00 -1.00000E+00  2.34671E-01
      21    -1     0     0   507   501  0.000000000E+00  0.000000000E+00  4.910708928E+02  4.910708928E+02  0.000000000E+00  0.00000E+00  9.000E+00
      21    -1     0     0   514   502  0.000000000E+00  0.000000000E+00 -1.648952028E+02  1.648952028E+02  0.000000000E+00  0.00000E+00  9.000E+00
      -6     2     1     2     0   502  1.191590066E+02 -7.532351425E+00  4.018347688E+01  2.175728842E+02  1.773912144E+02  0.00000E+00  9.000E+00
       6     2     1     2   507     0 -1.161239288E+02  6.959111760E+00  3.322070872E+02  3.920752356E+02  1.727085564E+02  0.00000E+00  9.000E+00
     -24     2     3     3     0     0  1.282831693E+02  8.806213029E+00  2.089897217E+01  1.840328575E+02  1.299892483E+02  0.00000E+00  9.000E+00
      24     2     4     4     0     0 -4.737850656E+01 -6.416278067E+01  1.998968838E+02  2.263828750E+02  7.020581608E+01  0.00000E+00  9.000E+00
     -11     1     6     6     0     0  1.548212951E+01 -2.322765693E+01  8.222597540E+01  8.683508168E+01  0.000000000E+00  0.00000E+00  9.000E+00
      12     1     6     6     0     0 -6.286063607E+01 -4.093512374E+01  1.176709084E+02  1.395477933E+02  2.697398305E-06  0.00000E+00  9.000E+00
      13     1     5     5     0     0 -1.529771483E+01  3.031810459E+01 -1.039650827E+01  3.551471426E+01  0.000000000E+00  0.00000E+00  9.000E+00
     -14     1     5     5     0     0  1.435808841E+02 -2.151189156E+01  3.129548044E+01  1.485181432E+02  3.520208135E-06  0.00000E+00  9.000E+00
       5     1     4     4   512     0 -5.569373557E+01  6.360375492E+01  1.127635427E+02  1.410156335E+02  4.750000000E+00  0.00000E+00  9.000E+00
      -5     1     3     3     0   511 -1.417148273E+01 -1.644480881E+01  1.709690609E+01  2.803799845E+01  4.750000000E+00  0.00000E+00  9.000E+00
      21     1     3     3   511   502  5.047320031E+00  1.062443512E-01  2.187598623E+00  5.502028271E+00  6.664001875E-08  0.00000E+00  9.000E+00
      21     1     4     4   507   512 -1.305168665E+01  7.518137513E+00  1.954666071E+01  2.467672711E+01  0.000000000E+00  0.00000E+00  9.000E+00
      21     1     1     2   514   501 -3.035077829E+00  5.732396655E-01 -4.621487410E+01  4.631797588E+01  6.743495762E-07  0.00000E+00  9.000E+00
#rwgt            1          17   4.5794228622964024                1      188253           0      111001           0
<weights>
0.24949E+02
</weights>
</event>
<event>
     15  10001  1.35503E+01  3.42134E+01 -1.00000E+00  1.47379E-01
      21    -1     0     0   502   511  0.000000000E+00  0.000000000E+00  2.808466270E+02  2.808466270E+02  0.000000000E+00  0.00000E+00  9.000E+00
      21    -1     0     0   507   502  0.000000000E+00  0.000000000E+00 -3.293820788E+02  3.293820788E+02  0.000000000E+00  0.00000E+00  9.000E+00
      -6     2     1     2     0   501  1.086714826E+01  2.072738972E+02 -8.469869630E+01  2.852912651E+02  1.764558682E+02  0.00000E+00  9.000E+00
       6     2     1     2   507     0 -1.936014867E+01 -1.741313914E+02  8.964602315E+01  2.614475646E+02  1.721100309E+02  0.00000E+00  9.000E+00
     -24     2     3     3     0     0 -2.039161965E+01  1.217759872E+02 -1.053560401E+02  1.818799554E+02  8.206834819E+01  0.00000E+00  9.000E+00
      24     2     4     4     0     0 -3.282786364E+01 -1.880062436E+02  1.037910661E+02  2.323524546E+02  8.240789682E+01  0.00000E+00  9.000E+00
     -11     1     6     6     0     0 -1.118576754E+01  4.714045843E+00 -5.155397703E-01  1.214946109E+01  0.000000000E+00  0.00000E+00  9.000E+00
      12     1     6     6     0     0 -2.164209610E+01 -1.927202895E+02  1.043066059E+02  2.202029935E+02  9.246215548E-06  0.00000E+00  9.000E+00
      13     1     5     5     0     0 -3.376025130E+01  2.655757297E+01 -6.430371946E+01  7.733063808E+01  0.000000000E+00  0.00000E+00  9.000E+00
     -14     1     5     5     0     0  1.336863165E+01  9.521841419E+01 -4.105232064E+01  1.045493173E+02  1.719260824E-06  0.00000E+00  9.000E+00
       5     1     4     4   513     0  1.437303828E+01  1.265774797E+01 -1.688024827E+01  2.596744297E+01  4.750000000E+00  0.00000E+00  9.000E+00
      -5     1     3     3     0   512  1.116012825E+00  4.176945771E+01  2.692109321E+01  4.993236267E+01  4.750000000E+00  0.00000E+00  9.000E+00
      21     1     3     3   512   501  3.014275509E+01  4.372845234E+01 -6.263749407E+00  5.347894712E+01  1.343420466E-06  0.00000E+00  9.000E+00
      21     1     1     2   501   511  8.493000401E+00 -3.314250583E+01 -5.348277866E+01  6.348987606E+01  1.651812370E-06  0.00000E+00  9.000E+00
      21     1     4     4   507   513 -9.053233026E-01  1.217104280E+00  2.735205274E+00  3.127667022E+00  1.429269172E-07  0.00000E+00  9.000E+00
#rwgt            1          17   4.3597802897232238                1      195587           0      110110           0
<weights>
0.16391E+02
</weights>
</event>
<event>
     15  10001 -1.35503E+01  4.47197E+01 -1.00000E+00  2.97421E-01
      21    -1     0     0   502   511  0.000000000E+00  0.000000000E+00  9.822722269E+02  9.822722269E+02  0.000000000E+00  0.00000E+00  9.000E+00
      21    -1     0     0   507   502  0.000000000E+00  0.000000000E+00 -1.526661859E+02  1.526661859E+02  0.000000000E+00  0.00000E+00  9.000E+00
      -6     2     1     2     0   501 -6.788327089E+01 -2.154774696E+02  4.007520495E+02  4.917094344E+02  1.736009342E+02  0.00000E+00  9.000E+00
       6     2     1     2   507     0  6.930091895E+01  1.707802345E+02  4.460811076E+01  2.563895422E+02  1.725607370E+02  0.00000E+00  9.000E+00
     -24     2     3     3     0     0 -1.867600733E+00 -3.070000795E+01  1.514995887E+02  1.743694349E+02  8.066347404E+01  0.00000E+00  9.000E+00
      24     2     4     4     0     0  6.603953986E+01  1.321858347E+02  9.374671945E+01  1.927129069E+02  8.071865563E+01  0.00000E+00  9.000E+00
     -11     1     6     6     0     0  5.274376536E+01  1.355301824E+02  6.193090528E+01  1.580688842E+02  0.000000000E+00  0.00000E+00  9.000E+00
      12     1     6     6     0     0  1.329577450E+01 -3.344347662E+00  3.181581417E+01  3.464402274E+01  1.011524364E-06  0.00000E+00  9.000E+00
      13     1     5     5     0     0  2.204452030E+01 -1.205622862E+01  6.118708441E+00  2.586024201E+01  0.000000000E+00  0.00000E+00  9.000E+00
     -14     1     5     5     0     0 -2.391212104E+01 -1.864377933E+01  1.453808802E+02  1.485091929E+02  3.303624740E-06  0.00000E+00  9.000E+00
       5     1     4     4   514     0  4.497265274E+00  3.655962202E+01 -4.871583928E+01  6.125868799E+01  4.750000000E+00  0.00000E+00  9.000E+00
      -5     1     3     3     0   512 -5.892864529E+01 -1.578004017E+02  2.128076354E+02  2.714465034E+02  4.750000000E+00  0.00000E+00  9.000E+00
      21     1     1     2   501   511 -1.417648054E+00  4.469723512E+01  3.842458807E+02  3.868394362E+02  1.078959322E-05  0.00000E+00  9.000E+00
      21     1     3     3   512   501 -7.087024866E+00 -2.697705999E+01  3.644482538E+01  4.589349610E+01  1.066240300E-06  0.00000E+00  9.000E+00
      21     1     4     4   507   514 -1.235886189E+00  2.034777784E+00 -4.227694019E-01  2.417947325E+00  4.970157170E-08  0.00000E+00  9.000E+00
#rwgt            1          17  -24.616525986220299                1      199884           0       11110           0
<weights>
-.15797E+02
</weights>
</event>
<event>
     13  10001  1.35503E+01  6.81127E+00 -1.00000E+00  2.17245E-01
      21    -1     0     0   512   501  0.000000000E+00  0.000000000E+00  2.068850247E+02  2.068850247E+02  0.000000000E+00  0.00000E+00  9.000E+00
      21    -1     0     0   501   502  0.000000000E+00  0.000000000E+00 -5.424765207E+02  5.424765207E+02  0.000000000E+00  0.00000E+00  9.000E+00
      -6     2     1     2     0   502  7.442937175E+01  3.068712289E+01 -4.685865082E+02  5.054664743E+02  1.715855766E+02  0.00000E+00  9.000E+00
       6     2     1     2   507     0 -8.079603922E+01 -3.310764936E+01  1.161129665E+02  2.256907619E+02  1.727135855E+02  0.00000E+00  9.000E+00
     -24     2     3     3     0     0  2.462344192E+01 -3.201664007E+01 -3.555004343E+02  3.668179433E+02  8.089169076E+01  0.00000E+00  9.000E+00
      24     2     4     4     0     0 -9.461598779E+01 -4.847249332E+01  2.874025749E+01  1.357817957E+02  7.942874730E+01  0.00000E+00  9.000E+00
     -11     1     6     6     0     0 -1.137264169E+01 -1.693780939E+01 -2.463777767E+01  3.198822368E+01  0.000000000E+00  0.00000E+00  9.000E+00
      12     1     6     6     0     0 -8.324334610E+01 -3.153468394E+01  5.337803517E+01  1.037935721E+02  1.651812370E-06  0.00000E+00  9.000E+00
      13     1     5     5     0     0 -2.879583751E+01 -2.703929599E+00 -9.616144423E+01  1.004168056E+02  0.000000000E+00  0.00000E+00  9.000E+00
     -14     1     5     5     0     0  5.341927943E+01 -2.931271047E+01 -2.593389900E+02  2.664011377E+02  3.814697266E-06  0.00000E+00  9.000E+00
       5     1     4     4   507     0  1.381994857E+01  1.536484396E+01  8.737270904E+01  8.990896615E+01  4.750000000E+00  0.00000E+00  9.000E+00
      -5     1     3     3     0   502  4.980592983E+01  6.270376296E+01 -1.130860740E+02  1.386485310E+02  4.750000000E+00  0.00000E+00  9.000E+00
      21     1     1     2   512   507  6.366667476E+00  2.420526466E+00  1.688204570E+01  1.820430911E+01  3.371747881E-07  0.00000E+00  9.000E+00
#rwgt            2         113   180.36878645708239                1      252060           0           1           0
<weights>
0.13550E+02
</weights>
</event>
<event>
     15  10001  1.35503E+01  6.77852E+01 -1.00000E+00  3.56021E-01
      -2    -1     0     0     0   501  0.000000000E+00  0.000000000E+00  2.879752269E+03  2.879752269E+03  0.000000000E+00  0.00000E+00  9.000E+00
      21    -1     0     0   501   502  0.000000000E+00  0.000000000E+00 -3.768854810E+01  3.768854810E+01  0.000000000E+00  0.00000E+00  9.000E+00
      -6     2     1     2     0   502 -5.403782248E+01 -1.570564955E+01  2.021417607E+02  2.657106967E+02  1.630157332E+02  0.00000E+00  9.000E+00
       6     2     1     2   507     0 -6.417052057E+00  4.636569276E+01  1.711633903E+03  1.720970459E+03  1.727939429E+02  0.00000E+00  9.000E+00
     -24     2     3     3     0     0 -4.659966096E+01  4.650838285E+01  1.014902196E+02  1.468943930E+02  8.332550594E+01  0.00000E+00  9.000E+00
      24     2     4     4     0     0 -1.699933361E+01  1.990265262E+00  4.156826013E+02  4.238328850E+02  8.092806021E+01  0.00000E+00  9.000E+00
     -11     1     6     6     0     0  8.460171478E+00  2.009108668E+01  3.107601449E+01  3.795978058E+01  0.000000000E+00  0.00000E+00  9.000E+00
      12     1     6     6     0     0 -2.545950509E+01 -1.810082141E+01  3.846065868E+02  3.858731045E+02  7.629394531E-06  0.00000E+00  9.000E+00
      13     1     5     5     0     0 -5.801639931E+01  2.600970077E+00  7.315966029E+01  9.340772735E+01  0.000000000E+00  0.00000E+00  9.000E+00
     -14     1     5     5     0     0  1.141673835E+01  4.390741278E+01  2.833055935E+01  5.348666567E+01  1.545128989E-06  0.00000E+00  9.000E+00
       5     1     4     4   511     0  2.063381518E+01  2.549957758E+01  8.988189884E+02  8.994298856E+02  4.750000000E+00  0.00000E+00  9.000E+00
      -5     1     3     3     0   512 -7.838991005E+00 -5.600720559E+01  9.308803849E+01  1.090238610E+02  4.750000000E+00  0.00000E+00  9.000E+00
      -2     1     1     2     0   507  6.045487454E+01 -3.066004321E+01  9.282880575E+02  9.307596617E+02  0.000000000E+00  0.00000E+00  9.000E+00
      21     1     4     4   507   511 -1.005153363E+01  1.887584992E+01  3.971323133E+02  3.977076883E+02  7.629394531E-06  0.00000E+00  9.000E+00
      21     1     3     3   512   502  4.008294869E-01 -6.206826818E+00  7.563502532E+00  9.792442697E+00  1.460009660E-07  0.00000E+00  9.000E+00
#rwgt            1          17   36.782418799435185                1      252211           0       11011           0
<weights>
0.12508E+02
</weights>
</event>
<event>
     13  10001  1.35503E+01  3.46024E+00 -1.00000E+00  2.79244E-01
      -2    -1     0     0     0   501  0.000000000E+00  0.000000000E+00  1.475851724E+01  1.475851724E+01  0.000000000E+00  0.00000E+00  9.000E+00
       2    -1     0     0   511     0  0.000000000E+00  0.000000000E+00 -3.088490150E+03  3.088490150E+03  0.000000000E+00  0.00000E+00  9.000E+00
      -6     2     1     2     0   501 -4.076002535E+01  5.000785185E+01 -2.277697707E+03  2.285151513E+03  1.727669726E+02  0.00000E+00  9.000E+00
       6     2     1     2   507     0  4.422020131E+01 -4.998634936E+01 -7.554083281E+02  7.773244618E+02  1.706971455E+02  0.00000E+00  9.000E+00
     -24     2     3     3     0     0 -9.210772800E+01  4.015837150E+01 -1.445179231E+03  1.450979364E+03  8.186315325E+01  0.00000E+00  9.000E+00
      24     2     4     4     0     0  3.059146244E+01 -4.828702561E+01 -2.128310810E+02  2.345526296E+02  8.031433640E+01  0.00000E+00  9.000E+00
     -11     1     6     6     0     0 -1.352993937E+01 -1.463354262E+01 -6.612031010E+00  2.099806617E+01  0.000000000E+00  0.00000E+00  9.000E+00
      12     1     6     6     0     0  4.412140181E+01 -3.365348299E+01 -2.062190499E+02  2.135545635E+02  2.697398305E-06  0.00000E+00  9.000E+00
      13     1     5     5     0     0 -5.423775045E+01  5.490737896E+01 -1.197813038E+03  1.200296891E+03  0.000000000E+00  0.00000E+00  9.000E+00
     -14     1     5     5     0     0 -3.786997756E+01 -1.474900746E+01 -2.473661937E+02  2.506824729E+02  4.672030912E-06  0.00000E+00  9.000E+00
       5     1     4     4   507     0  1.362873886E+01 -1.699323745E+00 -5.425772471E+02  5.427718322E+02  4.750000000E+00  0.00000E+00  9.000E+00
      -5     1     3     3     0   501  5.134770266E+01  9.849480351E+00 -8.325184756E+02  8.341721486E+02  4.750000000E+00  0.00000E+00  9.000E+00
      21     1     1     2   511   507 -3.460175961E+00 -2.150249306E-02 -4.062559792E+01  4.077269290E+01  6.743495762E-07  0.00000E+00  9.000E+00
#rwgt            2          24   151.40848221504081                1      263643           0           1           0
<weights>
0.13550E+02
</weights>
</event>
<event>
     15  10001  1.35503E+01  4.88286E+01 -1.00000E+00  2.42759E-01
      21    -1     0     0   502   501  0.000000000E+00  0.000000000E+00  1.064957069E+03  1.064957069E+03  0.000000000E+00  0.00000E+00  9.000E+00
      21    -1     0     0   507   512  0.000000000E+00  0.000000000E+00 -1.571694371E+02  1.571694371E+02  0.000000000E+00  0.00000E+00  9.000E+00
      -6     2     1     2     0   501 -4.414505235E+01  9.464004600E+01  8.537941935E+01  2.205715090E+02  1.745182551E+02  0.00000E+00  9.000E+00
       6     2     1     2   507     0  7.118490948E+00 -6.280816193E+01  8.951722651E+02  9.139259931E+02  1.730080879E+02  0.00000E+00  9.000E+00
     -24     2     3     3     0     0 -1.106901279E+01  1.264086555E+02  7.452783117E+01  1.677169558E+02  8.045438709E+01  0.00000E+00  9.000E+00
      24     2     4     4     0     0 -1.629146784E+01 -6.447921480E+01  2.921828002E+02  3.104271522E+02  8.106322862E+01  0.00000E+00  9.000E+00
     -11     1     6     6     0     0 -2.761249126E+01 -5.012554106E+01  2.851566497E+02  2.908424564E+02  0.000000000E+00  0.00000E+00  9.000E+00
      12     1     6     6     0     0  1.132102342E+01 -1.435367374E+01  7.026150472E+00  1.958469585E+01  4.380028980E-07  0.00000E+00  9.000E+00
      13     1     5     5     0     0 -2.182044503E+01  4.882256283E+01  7.155870953E+01  8.933321539E+01  0.000000000E+00  0.00000E+00  9.000E+00
     -14     1     5     5     0     0  1.075143224E+01  7.758609268E+01  2.969121639E+00  7.838374038E+01  3.653672351E-06  0.00000E+00  9.000E+00
       5     1     4     4   511     0  1.534773108E+01  2.566744219E+00  4.506012003E+02  4.508948273E+02  4.750000000E+00  0.00000E+00  9.000E+00
      -5     1     3     3     0   513 -3.453231349E+01 -3.401473928E+01  1.161781508E+01  5.007014370E+01  4.750000000E+00  0.00000E+00  9.000E+00
      21     1     1     2   502   512  3.702656140E+01 -3.183188407E+01 -7.276405230E+01  8.762900433E+01  2.523185073E-06  0.00000E+00  9.000E+00
      21     1     3     3   513   501  1.456273936E+00  2.246129765E+00 -7.662269016E-01  2.784409518E+00  3.942476677E-08  0.00000E+00  9.000E+00
      21     1     4     4   507   511  8.062227701E+00 -8.956913438E-01  1.523882646E+02  1.526040136E+02  1.907348633E-06  0.00000E+00  9.000E+00
#rwgt            1          17   33.827682850786914                1      267537           0       11110           0
<weights>
0.12338E+02
</weights>
</event>
<event>
     15  10001  1.35503E+01  2.43216E+02 -1.00000E+00  4.81415E-01
      21    -1     0     0   511   501  0.000000000E+00  0.000000000E+00  1.719234987E+02  1.719234987E+02  0.000000000E+00  0.00000E+00  9.000E+00
       2    -1     0     0   507     0  0.000000000E+00  0.000000000E+00 -9.454275551E+02  9.454275551E+02  0.000000000E+00  0.00000E+00  9.000E+00
      -6     2     1     2     0   501 -2.608338473E+02 -1.112513259E+02 -2.714398578E+02  4.288103540E+02  1.725907582E+02  0.00000E+00  9.000E+00
       6     2     1     2   507     0  7.032744485E+01 -3.994854140E+01 -9.409894768E+01  2.135778222E+02  1.738362411E+02  0.00000E+00  9.000E+00
     -24     2     3     3     0     0 -2.219260285E+02 -4.064961772E+01 -1.488317149E+02  2.819622180E+02  8.030105546E+01  0.00000E+00  9.000E+00
      24     2     4     4     0     0  4.973729275E+01 -8.423873952E+01 -2.871010114E+01  1.290538212E+02  7.912430312E+01  0.00000E+00  9.000E+00
     -11     1     6     6     0     0  3.561360061E+01 -6.594312869E+01  1.787723459E+01  7.704816861E+01  0.000000000E+00  0.00000E+00  9.000E+00
      12     1     6     6     0     0  1.412369214E+01 -1.829561083E+01 -4.658733573E+01  5.200565264E+01  0.000000000E+00  0.00000E+00  9.000E+00
      13     1     5     5     0     0 -1.200500390E+02 -6.239913749E+01 -8.267754255E+01  1.585598949E+02  0.000000000E+00  0.00000E+00  9.000E+00
     -14     1     5     5     0     0 -1.018759894E+02  2.174951978E+01 -6.615417231E+01  1.234023231E+02  2.523185073E-06  0.00000E+00  9.000E+00
       5     1     4     4   512     0  9.531269131E+00  3.066592288E+01 -5.572589027E+01  6.449171469E+01  4.750000000E+00  0.00000E+00  9.000E+00
      -5     1     3     3     0   513 -3.191895337E+01 -5.914838630E+01 -1.035084864E+02  1.235067628E+02  4.750000000E+00  0.00000E+00  9.000E+00
       2     1     1     2   511     0  1.905064025E+02  1.511998673E+02 -4.079652509E+02  4.749628777E+02  0.000000000E+00  0.00000E+00  9.000E+00
      21     1     4     4   507   512  1.105888296E+01  1.362427524E+01 -9.662956267E+00  2.003228624E+01  4.616955931E-07  0.00000E+00  9.000E+00
      21     1     3     3   513   501 -6.988865502E+00 -1.145332186E+01 -1.909965650E+01  2.334137316E+01  4.768371582E-07  0.00000E+00  9.000E+00
#rwgt            1           6  0.41054730422220670                1      273245           0       11011           0
<weights>
0.18132E+02
</weights>
</event>
<event>
     15  10001  1.35503E+01  7.96765E+01 -1.00000E+00  4.86056E-01
      21    -1     0     0   502   501  0.000000000E+00  0.000000000E+00  2.454500802E+02  2.454500802E+02  0.000000000E+00  0.00000E+00  9.000E+00
       2    -1     0     0   507     0  0.000000000E+00  0.000000000E+00 -1.579608013E+03  1.579608013E+03  0.000000000E+00  0.00000E+00  9.000E+00
      -6     2     1     2     0   501 -1.676554564E+01  3.837905367E+01  9.924293362E+01  2.098579071E+02  1.801031538E+02  0.00000E+00  9.000E+00
       6     2     1     2   507     0 -1.620789204E+01 -1.109124981E+02 -2.810731385E+01  2.076497191E+02  1.725227717E+02  0.00000E+00  9.000E+00
     -24     2     3     3     0     0 -4.284601288E+01 -1.934663840E+01  1.441987359E+00  9.296882299E+01  8.019382447E+01  0.00000E+00  9.000E+00
      24     2     4     4     0     0 -3.982921416E+01 -3.374753971E+01 -6.675304182E+01  1.172754272E+02  8.106968916E+01  0.00000E+00  9.000E+00
     -11     1     6     6     0     0 -2.651808808E+01  8.469468410E+00  9.238964525E+00  2.933086013E+01  0.000000000E+00  0.00000E+00  9.000E+00
      12     1     6     6     0     0 -1.331112608E+01 -4.221700812E+01 -7.599200634E+01  8.794456709E+01  2.132480600E-06  0.00000E+00  9.000E+00
      13     1     5     5     0     0 -6.366646416E+01  6.801943036E-01 -2.998680064E+00  6.374067308E+01  0.000000000E+00  0.00000E+00  9.000E+00
     -14     1     5     5     0     0  2.082045128E+01 -2.002683270E+01  4.440667423E+00  2.922814991E+01  8.840797528E-07  0.00000E+00  9.000E+00
       5     1     4     4   512     0  2.365520001E+01 -7.668725425E+01  3.936237291E+01  8.951235866E+01  4.750000000E+00  0.00000E+00  9.000E+00
      -5     1     3     3     0   511  2.549448308E+01  5.732573028E+01  9.461824343E+01  1.136282646E+02  4.750000000E+00  0.00000E+00  9.000E+00
       2     1     1     2   502     0  3.297343768E+01  7.253344444E+01 -1.405293553E+03  1.407550467E+03  0.000000000E+00  0.00000E+00  9.000E+00
      21     1     3     3   511   501  5.859841512E-01  3.999617854E-01  3.182702831E+00  3.260819554E+00  1.460009660E-07  0.00000E+00  9.000E+00
      21     1     4     4   507   512 -3.387789366E-02 -4.777041507E-01 -7.166449426E-01  8.619332579E-01  1.490116119E-08  0.00000E+00  9.000E+00
#rwgt            1          17   20.471136743110364                1      278279           0       11110           0
<weights>
0.14500E+02
</weights>
</event>
<event>
     14  10001  1.35503E+01  1.21583E+01 -1.00000E+00  4.31418E-01
      21    -1     0     0   507   501  0.000000000E+00  0.000000000E+00  1.528552489E+02  1.528552489E+02  0.000000000E+00  0.00000E+00  9.000E+00
      21    -1     0     0   511   502  0.000000000E+00  0.000000000E+00 -1.511763143E+03  1.511763143E+03  0.000000000E+00  0.00000E+00  9.000E+00
      -6     2     1     2     0   502 -6.398598873E+01  1.245854242E+01 -1.273102116E+03  1.286462054E+03  1.730496880E+02  0.00000E+00  9.000E+00
       6     2     1     2   507     0  5.247958138E+01 -1.638628814E+01 -1.966459735E+02  2.666512994E+02  1.714953635E+02  0.00000E+00  9.000E+00
     -24     2     3     3     0     0 -7.935721832E+00 -1.043156572E+01 -2.836100375E+02  2.950297711E+02  8.022542762E+01  0.00000E+00  9.000E+00
      24     2     4     4     0     0  6.789250136E+01 -6.233635307E+01 -1.002630759E+02  1.586643002E+02  8.140309022E+01  0.00000E+00  9.000E+00
     -11     1     6     6     0     0  3.009654843E+00 -5.182421338E+01 -2.178638818E+01  5.629790249E+01  0.000000000E+00  0.00000E+00  9.000E+00
      12     1     6     6     0     0  6.488284651E+01 -1.051213969E+01 -7.847668776E+01  1.023663977E+02  1.651812370E-06  0.00000E+00  9.000E+00
      13     1     5     5     0     0 -1.891598446E+01 -1.607213575E+01 -2.813957852E+02  2.824884350E+02  0.000000000E+00  0.00000E+00  9.000E+00
     -14     1     5     5     0     0  1.098026263E+01  5.640570037E+00 -2.214252330E+00  1.254133609E+01  1.242081284E-06  0.00000E+00  9.000E+00
       5     1     4     4   507     0 -1.541291997E+01  4.595006493E+01 -9.638289755E+01  1.079869993E+02  4.750000000E+00  0.00000E+00  9.000E+00
      -5     1     3     3     0   512 -5.662123475E+01  2.240236483E+01 -9.832600134E+02  9.851551383E+02  4.750000000E+00  0.00000E+00  9.000E+00
      21     1     1     2   511   501  1.150640735E+01  3.927745724E+00  1.108401960E+02  1.115050387E+02  1.907348633E-06  0.00000E+00  9.000E+00
      21     1     3     3   512   502  5.709678432E-01  4.877433061E-01 -6.232065556E+00  6.277144168E+00  1.192092896E-07  0.00000E+00  9.000E+00
#rwgt            1          17   16.675610620922203                1      292682           0         111           0
<weights>
0.13792E+02
</weights>
</event>
<event>
     13  10001  1.35503E+01  3.12611E+01 -1.00000E+00  1.51808E-01
      21    -1     0     0   507   501  0.000000000E+00  0.000000000E+00  8.200138017E+02  8.200138017E+02  0.000000000E+00  0.00000E+00  9.000E+00
      21    -1     0     0   512   502  0.000000000E+00  0.000000000E+00 -1.961231490E+02  1.961231490E+02  0.000000000E+00  0.00000E+00  9.000E+00
      -6     2     1     2     0   502  1.518204772E+02 -1.370485042E+02 -2.920262793E+01  2.696380247E+02  1.732631556E+02  0.00000E+00  9.000E+00
       6     2     1     2   507     0 -1.579762581E+02  1.676975161E+02  6.548349960E+02  7.151893564E+02  1.720697199E+02  0.00000E+00  9.000E+00
     -24     2     3     3     0     0  9.842745556E+01 -9.739083527E+01  4.796270239E+01  1.676547115E+02  8.145392974E+01  0.00000E+00  9.000E+00
      24     2     4     4     0     0 -4.384951422E+01  1.497429453E+02  3.576201248E+02  3.962747558E+02  6.925170698E+01  0.00000E+00  9.000E+00
     -11     1     6     6     0     0 -2.173826308E+01  1.693056185E+01  2.411118390E+01  3.661345648E+01  0.000000000E+00  0.00000E+00  9.000E+00
      12     1     6     6     0     0 -2.211125114E+01  1.328123834E+02  3.335089409E+02  3.596612994E+02  3.814697266E-06  0.00000E+00  9.000E+00
      13     1     5     5     0     0  3.555676358E+00 -2.754342482E+01 -1.755149651E+01  3.285328165E+01  0.000000000E+00  0.00000E+00  9.000E+00
     -14     1     5     5     0     0  9.487177920E+01 -6.984741045E+01  6.551419891E+01  1.348014299E+02  2.132480600E-06  0.00000E+00  9.000E+00
       5     1     4     4   507     0 -1.141267438E+02  1.795457088E+01  2.972148713E+02  3.189146006E+02  4.750000000E+00  0.00000E+00  9.000E+00
      -5     1     3     3     0   502  5.339302167E+01 -3.965766890E+01 -7.716533032E+01  1.019833132E+02  4.750000000E+00  0.00000E+00  9.000E+00
      21     1     1     2   512   501  6.155780839E+00 -3.064901198E+01 -1.741715349E+00  3.130956955E+01  5.971629891E-07  0.00000E+00  9.000E+00
#rwgt            2         113   18.320182182856129                1      310993           0           1           0
<weights>
0.13550E+02
</weights>
</event>
<event>
     15  10001  1.35503E+01  9.33862E+01 -1.00000E+00  2.66770E-01
      21    -1     0     0   502   511  0.000000000E+00  0.000000000E+00  2.546906476E+02  2.546906476E+02  0.000000000E+00  0.00000E+00  9.000E+00
      21    -1     0     0   507   502  0.000000000E+00  0.000000000E+00 -9.565101816E+02  9.565101816E+02  0.000000000E+00  0.00000E+00  9.000E+00
      -6     2     1     2     0   501  1.157819906E+02  3.767232796E+01 -5.286885655E+02  5.692717732E+02  1.724357240E+02  0.00000E+00  9.000E+00
       6     2     1     2   507     0 -1.316538700E+02  5.435524644E+01 -3.650814267E+02  4.284671872E+02  1.732410114E+02  0.00000E+00  9.000E+00
     -24     2     3     3     0     0  4.341015745E+01 -3.669479392E+01 -3.019501196E+02  3.192740727E+02  8.678196291E+01  0.00000E+00  9.000E+00
      24     2     4     4     0     0 -1.579246880E+02  1.752370672E+01 -3.079002576E+02  3.553408052E+02  7.884942481E+01  0.00000E+00  9.000E+00
     -11     1     6     6     0     0 -1.432125795E+02 -9.452859387E+00 -2.244702001E+02  2.664321118E+02  0.000000000E+00  0.00000E+00  9.000E+00
      12     1     6     6     0     0 -1.471210852E+01  2.697656611E+01 -8.343005750E+01  8.890869334E+01  1.348699152E-06  0.00000E+00  9.000E+00
      13     1     5     5     0     0  1.242435637E+01  5.248178395E+00 -2.300988576E+02  2.304938010E+02  0.000000000E+00  0.00000E+00  9.000E+00
     -14     1     5     5     0     0  3.098580108E+01 -4.194297232E+01 -7.185126196E+01  8.878027169E+01  2.336015456E-06  0.00000E+00  9.000E+00
       5     1     4     4   514     0  2.362864406E+01  3.183778087E+01 -5.029342676E+01  6.421797557E+01  4.750000000E+00  0.00000E+00  9.000E+00
      -5     1     3     3     0   513  7.288082321E+01  7.247092065E+01 -2.248545343E+02  2.472767131E+02  4.750000000E+00  0.00000E+00  9.000E+00
      21     1     1     2   501   511  1.587187945E+01 -9.202757440E+01  1.919504582E+02  2.134618688E+02  0.000000000E+00  0.00000E+00  9.000E+00
      21     1     3     3   513   501 -5.089900934E-01  1.896201224E+00 -1.883911515E+00  2.720987430E+00  7.598131170E-08  0.00000E+00  9.000E+00
      21     1     4     4   507   514  2.642173926E+00  4.993758851E+00 -6.887742307E+00  8.908406401E+00  1.884864366E-07  0.00000E+00  9.000E+00
#rwgt            1          17   4.8575674722025814                1      314456           0       11110           0
<weights>
0.36577E+01
</weights>
</event>
<event>
     14  10001  1.35503E+01  2.60441E+01 -1.00000E+00  2.65498E-01
      21    -1     0     0   507   512  0.000000000E+00  0.000000000E+00  1.613170816E+02  1.613170816E+02  0.000000000E+00  0.00000E+00  9.000E+00
      21    -1     0     0   501   502  0.000000000E+00  0.000000000E+00 -7.874207251E+02  7.874207251E+02  0.000000000E+00  0.00000E+00  9.000E+00
      -6     2     1     2     0   502  5.511036917E+01  8.022153612E+01 -6.444717351E+02  6.743536809E+02  1.730214495E+02  0.00000E+00  9.000E+00
       6     2     1     2   507     0 -3.093747840E+01 -8.991530141E+01  7.613011921E+01  2.110220743E+02  1.723155007E+02  0.00000E+00  9.000E+00
     -24     2     3     3     0     0  7.779934372E+01  6.093634575E+01 -2.728592858E+02  3.011571531E+02  8.048269949E+01  0.00000E+00  9.000E+00
      24     2     4     4     0     0  4.060405075E+01 -4.721482668E+01  6.091034761E+00  1.020745787E+02  8.064855933E+01  0.00000E+00  9.000E+00
     -11     1     6     6     0     0  2.005972682E+01 -6.857326119E+01 -1.572653416E+00  7.146438294E+01  0.000000000E+00  0.00000E+00  9.000E+00
      12     1     6     6     0     0  2.054432392E+01  2.135843450E+01  7.663688177E+00  3.061019579E+01  9.830249847E-07  0.00000E+00  9.000E+00
      13     1     5     5     0     0  5.867031412E+01  4.937432228E+01 -9.588083417E+01  1.227728139E+02  0.000000000E+00  0.00000E+00  9.000E+00
     -14     1     5     5     0     0  1.912902961E+01  1.156202347E+01 -1.769784516E+02  1.783843393E+02  4.672030912E-06  0.00000E+00  9.000E+00
       5     1     4     4   507     0 -7.154152915E+01 -4.270047472E+01  7.003908445E+01  1.089474955E+02  4.750000000E+00  0.00000E+00  9.000E+00
      -5     1     3     3     0   511 -2.244445678E+01  2.141615237E+01 -3.614622464E+02  3.628221648E+02  4.750000000E+00  0.00000E+00  9.000E+00
      21     1     1     2   501   512 -2.417289077E+01  9.693765288E+00 -5.776202763E+01  6.336205150E+01  9.536743164E-07  0.00000E+00  9.000E+00
      21     1     3     3   511   502 -2.445177683E-01 -2.130962003E+00 -1.015020290E+01  1.037436296E+01  1.192092896E-07  0.00000E+00  9.000E+00
#rwgt            1          17   19.251927101109445                1      327904           0         111           0
<weights>
0.11139E+02
</weights>
</event>
<event>
     15  10001 -1.35503E+01  4.94098E+00 -1.00000E+00  2.25455E-01
      21    -1     0     0   502   501  0.000000000E+00  0.000000000E+00  7.687816450E+01  7.687816450E+01  0.000000000E+00  0.00000E+00  9.000E+00
       1    -1     0     0   507     0  0.000000000E+00  0.000000000E+00 -1.062638732E+03  1.062638732E+03  0.000000000E+00  0.00000E+00  9.000E+00
      -6     2     1     2     0   501  3.442406901E+01  1.212040795E+02 -3.110390627E+02  3.774462851E+02  1.727569223E+02  0.00000E+00  9.000E+00
       6     2     1     2   507     0 -3.622566584E+01 -1.166032618E+02 -1.250108172E+02  2.123377187E+02  1.206274547E+02  0.00000E+00  9.000E+00
     -24     2     3     3     0     0  4.486560229E+01  5.047555311E+01 -8.391603164E+01  1.378566437E+02  8.603400557E+01  0.00000E+00  9.000E+00
      24     2     4     4     0     0 -4.654187346E+00 -8.873918141E+01 -1.180110063E+02  1.688942029E+02  8.186788364E+01  0.00000E+00  9.000E+00
     -11     1     6     6     0     0  4.783485046E+00 -1.471109955E+01  1.159907044E+01  1.933485491E+01  0.000000000E+00  0.00000E+00  9.000E+00
      12     1     6     6     0     0 -9.437672392E+00 -7.402808186E+01 -1.296100768E+02  1.495593480E+02  1.907348633E-06  0.00000E+00  9.000E+00
      13     1     5     5     0     0 -2.184798549E+01  5.166501131E+00 -4.040296713E+01  4.622149886E+01  0.000000000E+00  0.00000E+00  9.000E+00
     -14     1     5     5     0     0  6.671358778E+01  4.530905198E+01 -4.351306450E+01  9.163514483E+01  1.651812370E-06  0.00000E+00  9.000E+00
       5     1     4     4   512     0 -3.048746303E+01 -2.653658239E+01 -7.976006349E+00  4.147113194E+01  4.750000000E+00  0.00000E+00  9.000E+00
      -5     1     3     3     0   511 -1.018578086E+01  6.729412768E+01 -2.258299889E+02  2.359109920E+02  4.750000000E+00  0.00000E+00  9.000E+00
      21     1     3     3   511   501 -2.557524247E-01  3.434398666E+00 -1.293042137E+00  3.678649408E+00  1.032382731E-07  0.00000E+00  9.000E+00
       1     1     1     2   502     0  1.801596830E+00 -4.600817674E+00 -5.497106880E+02  5.497328931E+02  0.000000000E+00  0.00000E+00  9.000E+00
      21     1     4     4   507   512 -1.084015462E+00 -1.327497989E+00  9.761954845E-01  1.972383852E+00  8.296615426E-08  0.00000E+00  9.000E+00
#rwgt            1          17  -7.1123677590450241                1      338728           0      110110           0
<weights>
-.11446E+02
</weights>
</event>
<event>
     15  10001  1.35503E+01  1.15337E+01 -1.00000E+00  5.56591E-01
       1    -1     0     0   512     0  0.000000000E+00  0.000000000E+00  6.689607321E+02  6.689607321E+02  0.000000000E+00  0.00000E+00  9.000E+00
      -1    -1     0     0     0   502  0.000000000E+00  0.000000000E+00 -9.183762648E+01  9.183762648E+01  0.000000000E+00  0.00000E+00  9.000E+00
      -6     2     1     2     0   502 -4.666977443E+01  6.782557091E+01  6.409263883E+01  2.016934826E+02  1.726094397E+02  0.00000E+00  9.000E+00
       6     2     1     2   507     0  5.293450192E+01 -5.814164535E+01  5.133652678E+02  5.475663615E+02  1.735007482E+02  0.00000E+00  9.000E+00
     -24     2     3     3     0     0 -8.822056997E+00 -2.806581460E+01  1.557501105E+01  8.748797022E+01  8.090763453E+01  0.00000E+00  9.000E+00
      24     2     4     4     0     0 -1.289530670E+00 -9.220117262E+01  3.717297185E+02  3.913199089E+02  8.028429725E+01  0.00000E+00  9.000E+00
     -11     1     6     6     0     0  3.319369108E+01 -2.116593490E+01  1.741825646E+02  1.785759887E+02  0.000000000E+00  0.00000E+00  9.000E+00
      12     1     6     6     0     0 -3.448322175E+01 -7.103523772E+01  1.975471539E+02  2.127439202E+02  0.000000000E+00  0.00000E+00  9.000E+00
      13     1     5     5     0     0  2.799702841E+01 -1.917621768E+01 -1.661160457E+01  3.778235475E+01  0.000000000E+00  0.00000E+00  9.000E+00
     -14     1     5     5     0     0 -3.681908541E+01 -8.889596927E+00  3.218661563E+01  4.970561547E+01  1.168007728E-06  0.00000E+00  9.000E+00
       5     1     4     4   511     0  4.137073503E+01  3.119315453E+01  1.216812024E+02  1.323383093E+02  4.750000000E+00  0.00000E+00  9.000E+00
      -5     1     3     3     0   513 -3.757934111E+01  9.265272305E+01  4.753760865E+01  1.108111939E+02  4.750000000E+00  0.00000E+00  9.000E+00
      21     1     1     2   512   507 -6.264727492E+00 -9.683925561E+00 -3.348010035E-01  1.153851449E+01  2.149076030E-07  0.00000E+00  9.000E+00
      21     1     4     4   507   511  1.285329756E+01  2.866372743E+00  1.995434698E+01  2.390814326E+01  2.384185791E-07  0.00000E+00  9.000E+00
      21     1     3     3   513   502 -2.683763241E-01  3.238662463E+00  9.800191261E-01  3.394318471E+00  5.161913656E-08  0.00000E+00  9.000E+00
#rwgt            1           4  0.51917046674566691                1      346114           0       11011           0
<weights>
0.20036E+02
</weights>
</event>
<event>
     15  10001  1.35503E+01  2.64932E+01 -1.00000E+00  1.71699E-01
      21    -1     0     0   502   511  0.000000000E+00  0.000000000E+00  7.703080858E+02  7.703080858E+02  0.000000000E+00  0.00000E+00  9.000E+00
      21    -1     0     0   507   502  0.000000000E+00  0.000000000E+00 -1.362579609E+02  1.362579609E+02  0.000000000E+00  0.00000E+00  9.000E+00
      -6     2     1     2     0   501  1.559591218E+01  6.374028618E+01  6.574974221E+02  6.829983837E+02  1.728521783E+02  0.00000E+00  9.000E+00
       6     2     1     2   507     0 -3.805631316E+01 -7.779093752E+01 -8.630352885E+00  1.932125603E+02  1.725018770E+02  0.00000E+00  9.000E+00
     -24     2     3     3     0     0  2.368159344E+01  3.195159922E+01  1.637929322E+02  1.870330151E+02  8.106479831E+01  0.00000E+00  9.000E+00
      24     2     4     4     0     0  3.930459452E+00 -3.196367344E+01 -6.701907262E+01  1.071071966E+02  7.709261012E+01  0.00000E+00  9.000E+00
     -11     1     6     6     0     0  9.369478907E+00 -2.142647320E+01  1.263143263E+01  2.657882576E+01  0.000000000E+00  0.00000E+00  9.000E+00
      12     1     6     6     0     0 -5.439019455E+00 -1.053720025E+01 -7.965050525E+01  8.052837083E+01  3.015782986E-06  0.00000E+00  9.000E+00
      13     1     5     5     0     0  3.741614259E+01  5.016592137E+01  1.432921362E+02  1.563624753E+02  0.000000000E+00  0.00000E+00  9.000E+00
     -14     1     5     5     0     0 -1.373454915E+01 -1.821432216E+01  2.050079607E+01  3.067053980E+01  1.192092896E-06  0.00000E+00  9.000E+00
       5     1     4     4   514     0 -2.891425903E+01 -3.819776295E+01  4.391271358E+01  6.516127979E+01  4.750000000E+00  0.00000E+00  9.000E+00
      -5     1     3     3     0   512  4.310148096E+00  2.960968477E+01  4.276965472E+02  4.287682472E+02  4.750000000E+00  0.00000E+00  9.000E+00
      21     1     1     2   501   511  2.246040098E+01  1.405065134E+01 -1.481694437E+01  3.035510263E+01  1.488923549E-06  0.00000E+00  9.000E+00
      21     1     3     3   512   501 -1.239582935E+01  2.179002199E+00  6.600794272E+01  6.719712150E+01  0.000000000E+00  0.00000E+00  9.000E+00
      21     1     4     4   507   514 -1.307251358E+01 -7.629501124E+00  1.447600616E+01  2.094408397E+01  2.920019320E-07  0.00000E+00  9.000E+00
#rwgt            1          17   9.9477788285909625                1      349815           0       11110           0
<weights>
0.13469E+02
</weights>
</event>
<event>
     13  10001  1.35503E+01  1.24137E+02 -1.00000E+00  1.19747E-01
      21    -1     0     0   507   501  0.000000000E+00  0.000000000E+00  8.893126132E+02  8.893126132E+02  0.000000000E+00  0.00000E+00  9.000E+00
      21    -1     0     0   512   502  0.000000000E+00  0.000000000E+00 -1.824842654E+02  1.824842654E+02  0.000000000E+00  0.00000E+00  9.000E+00
      -6     2     1     2     0   502  4.426068719E+01 -1.963805946E+02  1.644329892E+02  3.119116002E+02  1.724131434E+02  0.00000E+00  9.000E+00
       6     2     1     2   507     0  3.079395837E+01  9.750266870E+01  5.929232850E+02  6.258587310E+02  1.722965208E+02  0.00000E+00  9.000E+00
     -24     2     3     3     0     0  7.294933148E-01 -3.817594520E+01  1.086735153E+02  1.385467901E+02  7.698925365E+01  0.00000E+00  9.000E+00
      24     2     4     4     0     0  5.877229956E+00  1.334533252E+02  4.739346434E+02  4.989960006E+02  8.086179906E+01  0.00000E+00  9.000E+00
     -11     1     6     6     0     0 -3.679154892E+01  4.821666089E+01  1.727359522E+02  1.830742299E+02  0.000000000E+00  0.00000E+00  9.000E+00
      12     1     6     6     0     0  4.266877888E+01  8.523666430E+01  3.011986912E+02  3.159217707E+02  6.607249480E-06  0.00000E+00  9.000E+00
      13     1     5     5     0     0  2.635358982E+01 -3.673461220E+00  8.586328077E+01  8.989165143E+01  0.000000000E+00  0.00000E+00  9.000E+00
     -14     1     5     5     0     0 -2.562409650E+01 -3.450248398E+01  2.281023452E+01  4.865513870E+01  8.259061849E-07  0.00000E+00  9.000E+00
       5     1     4     4   507     0  2.491672841E+01 -3.595065650E+01  1.189886416E+02  1.268627304E+02  4.750000000E+00  0.00000E+00  9.000E+00
      -5     1     3     3     0   502  4.353119388E+01 -1.582046494E+02  5.575947394E+01  1.733648100E+02  4.750000000E+00  0.00000E+00  9.000E+00
      21     1     1     2   512   501 -7.505464556E+01  9.887792589E+01 -5.052792638E+01  1.340265473E+02  1.168007728E-06  0.00000E+00  9.000E+00
#rwgt            2         113   1.4741029251709816                1      361866           0           1           0
<weights>
0.13550E+02
</weights>
</event>
<event>
     15  10001  1.35503E+01  2.18198E+02 -1.00000E+00  3.70518E-01
      21    -1     0     0   502   501  0.000000000E+00  0.000000000E+00  1.134905625E+03  1.134905625E+03  0.000000000E+00  0.00000E+00  9.000E+00
       2    -1     0     0   507     0  0.000000000E+00  0.000000000E+00 -4.626391377E+02  4.626391377E+02  0.000000000E+00  0.00000E+00  9.000E+00
      -6     2     1     2     0   501 -5.867834518E+01 -4.778828680E+01  1.012263956E+03  1.029739852E+03  1.730866204E+02  0.00000E+00  9.000E+00
       6     2     1     2   507     0 -1.585947047E+02  2.771950593E+01 -2.000708614E+02  3.085949772E+02  1.711194289E+02  0.00000E+00  9.000E+00
     -24     2     3     3     0     0 -7.198018531E+01 -8.141143128E+01  9.269365668E+02  9.367520698E+02  8.052374280E+01  0.00000E+00  9.000E+00
      24     2     4     4     0     0 -9.936077669E+01 -4.908014343E+01 -1.305998256E+02  1.889438257E+02  7.976233713E+01  0.00000E+00  9.000E+00
     -11     1     6     6     0     0  1.262538903E+01 -7.164169878E+00 -2.734112554E+01  3.095582213E+01  0.000000000E+00  0.00000E+00  9.000E+00
      12     1     6     6     0     0 -1.119861657E+02 -4.191597355E+01 -1.032587000E+02  1.579880036E+02  0.000000000E+00  0.00000E+00  9.000E+00
      13     1     5     5     0     0 -4.500050060E+01 -8.911766218E+01  8.251982150E+02  8.312154334E+02  0.000000000E+00  0.00000E+00  9.000E+00
     -14     1     5     5     0     0 -2.697968471E+01  7.706230902E+00  1.017383518E+02  1.055366363E+02  1.907348633E-06  0.00000E+00  9.000E+00
       5     1     4     4   512     0 -5.686918267E+01  7.419611689E+01 -6.853380507E+01  1.160112608E+02  4.750000000E+00  0.00000E+00  9.000E+00
      -5     1     3     3     0   511  1.109506263E+01  3.031205963E+01  7.136374740E+01  7.846826312E+01  4.750000000E+00  0.00000E+00  9.000E+00
       2     1     1     2   502     0  2.172730499E+02  2.006878087E+01 -1.399266071E+02  2.592099334E+02  0.000000000E+00  0.00000E+00  9.000E+00
      21     1     3     3   511   501  2.206777498E+00  3.311084843E+00  1.396364132E+01  1.451951889E+01  0.000000000E+00  0.00000E+00  9.000E+00
      21     1     4     4   507   512 -2.364745379E+00  2.603532470E+00 -9.372308063E-01  3.639890605E+00  6.746787681E-08  0.00000E+00  9.000E+00
#rwgt            1          17   14.683743355205706                1      362017           0       11110           0
<weights>
0.32459E+02
</weights>
</event>
<event>
     13  10001  1.35503E+01  9.24096E+01 -1.00000E+00  1.25390E-01
      21    -1     0     0   507   501  0.000000000E+00  0.000000000E+00  1.432145019E+02  1.432145019E+02  0.000000000E+00  0.00000E+00  9.000E+00
      21    -1     0     0   501   511  0.000000000E+00  0.000000000E+00 -2.148881061E+03  2.148881061E+03  0.000000000E+00  0.00000E+00  9.000E+00
      -6     2     1     2     0   502 -3.878620387E+01  1.326585362E+02 -1.146826822E+03  1.167917557E+03  1.723862036E+02  0.00000E+00  9.000E+00
       6     2     1     2   507     0  7.313901064E+01 -4.687143112E+01  5.873660532E+01  2.019600888E+02  1.726025571E+02  0.00000E+00  9.000E+00
     -24     2     3     3     0     0 -2.989415303E+01  1.598928961E+02 -1.078535719E+03  1.093708284E+03  8.061708760E+01  0.00000E+00  9.000E+00
      24     2     4     4     0     0  1.075395739E+02 -6.606603026E+01  6.253760229E+01  1.620998145E+02  8.022417240E+01  0.00000E+00  9.000E+00
     -11     1     6     6     0     0  9.448245061E+01 -7.589773648E+01  2.873297421E+01  1.245511288E+02  0.000000000E+00  0.00000E+00  9.000E+00
      12     1     6     6     0     0  1.305712329E+01  9.831706213E+00  3.380462808E+01  3.754868567E+01  2.132480600E-06  0.00000E+00  9.000E+00
      13     1     5     5     0     0 -4.481190627E+01  5.638614187E+01 -5.699091163E+02  5.744422554E+02  0.000000000E+00  0.00000E+00  9.000E+00
     -14     1     5     5     0     0  1.491775324E+01  1.035067543E+02 -5.086266027E+02  5.192660286E+02  1.705984480E-05  0.00000E+00  9.000E+00
       5     1     4     4   507     0 -3.440056326E+01  1.919459914E+01 -3.800996977E+00  3.986027430E+01  4.750000000E+00  0.00000E+00  9.000E+00
      -5     1     3     3     0   502 -8.892050840E+00 -2.723435997E+01 -6.829110348E+01  7.420927331E+01  4.750000000E+00  0.00000E+00  9.000E+00
      21     1     1     2   502   511 -3.435280677E+01 -8.578710504E+01 -9.175763420E+02  9.222179169E+02  1.078959322E-05  0.00000E+00  9.000E+00
#rwgt            2         113  0.45979987909194719                1      389878           0           1           0
<weights>
0.13550E+02
</weights>
</event>
<event>
     14  10001  1.35503E+01  2.67715E+01 -1.00000E+00  3.73745E-01
      21    -1     0     0   502   512  0.000000000E+00  0.000000000E+00  2.451352734E+03  2.451352734E+03  0.000000000E+00  0.00000E+00  9.000E+00
      21    -1     0     0   507   502  0.000000000E+00  0.000000000E+00 -2.770420312E+01  2.770420312E+01  0.000000000E+00  0.00000E+00  9.000E+00
      -6     2     1     2     0   501  1.522772586E+02  1.029496779E+02  9.621147894E+02  9.942154067E+02  1.703302889E+02  0.00000E+00  9.000E+00
       6     2     1     2   507     0 -1.392906521E+02 -7.953891389E+01  1.297054204E+03  1.318197496E+03  1.719497216E+02  0.00000E+00  9.000E+00
     -24     2     3     3     0     0  1.554976376E+01  1.503725526E+01  2.417228488E+02  2.556563970E+02  8.038870226E+01  0.00000E+00  9.000E+00
      24     2     4     4     0     0 -1.650017215E+02 -8.055899810E+01  9.617246999E+02  9.818486619E+02  7.346479551E+01  0.00000E+00  9.000E+00
     -11     1     6     6     0     0 -7.845421610E+01 -1.413859320E+01  5.570847790E+02  5.627596422E+02  0.000000000E+00  0.00000E+00  9.000E+00
      12     1     6     6     0     0 -8.654750536E+01 -6.642040490E+01  4.046399209E+02  4.190890197E+02  5.394796609E-06  0.00000E+00  9.000E+00
      13     1     5     5     0     0 -2.847814964E+01  1.556824466E+01  5.544881321E+01  6.424909443E+01  0.000000000E+00  0.00000E+00  9.000E+00
     -14     1     5     5     0     0  4.402791340E+01 -5.309893970E-01  1.862740356E+02  1.914073025E+02  2.697398305E-06  0.00000E+00  9.000E+00
       5     1     4     4   507     0  2.571106931E+01  1.020084209E+00  3.353295038E+02  3.363488343E+02  4.750000000E+00  0.00000E+00  9.000E+00
      -5     1     3     3     0   513  1.289448845E+02  8.215564047E+01  6.845768810E+02  7.014587664E+02  4.750000000E+00  0.00000E+00  9.000E+00
      21     1     1     2   501   512 -1.298660643E+01 -2.341076404E+01  1.644795375E+02  1.666440340E+02  3.303624740E-06  0.00000E+00  9.000E+00
      21     1     3     3   513   501  7.782610345E+00  5.756782200E+00  3.581505956E+01  3.710024334E+01  4.768371582E-07  0.00000E+00  9.000E+00
#rwgt            1          17   19.136679513451497                1      389981           0         111           0
<weights>
0.98335E+01
</weights>
</event>
<event>
     15  10001  1.35503E+01  2.89480E+01 -1.00000E+00  1.61813E-01
      21    -1     0     0   507   511  0.000000000E+00  0.000000000E+00  7.167336036E+02  7.167336036E+02  0.000000000E+00  0.00000E+00  9.000E+00
      21    -1     0     0   501   502  0.000000000E+00  0.000000000E+00 -2.328024769E+02  2.328024769E+02  0.000000000E+00  0.00000E+00  9.000E+00
      -6     2     1     2     0   502 -5.342931154E+01 -1.278246698E+02 -1.253917346E+02  2.541354490E+02  1.722437280E+02  0.00000E+00  9.000E+00
       6     2     1     2   507     0  2.495305491E+01  1.330292207E+02  2.641835794E+02  3.490494968E+02  1.836386645E+02  0.00000E+00  9.000E+00
     -24     2     3     3     0     0 -2.288377872E+01 -1.374199617E+02 -5.918675714E+01  1.720702238E+02  8.183627868E+01  0.00000E+00  9.000E+00
      24     2     4     4     0     0  3.727339237E+01  1.066066693E+02  2.719561590E+02  3.078738954E+02  8.984372727E+01  0.00000E+00  9.000E+00
     -11     1     6     6     0     0  4.223065337E+01  5.881533714E+00  9.650844415E+01  1.055078211E+02  0.000000000E+00  0.00000E+00  9.000E+00
      12     1     6     6     0     0 -4.957261003E+00  1.007251356E+02  1.754477148E+02  2.023660742E+02  4.264961200E-06  0.00000E+00  9.000E+00
      13     1     5     5     0     0 -9.676909248E+00 -1.099561296E+02 -7.898451840E+01  1.357296841E+02  0.000000000E+00  0.00000E+00  9.000E+00
     -14     1     5     5     0     0 -1.320686947E+01 -2.746383210E+01  1.979776126E+01  3.634053970E+01  1.469710828E-06  0.00000E+00  9.000E+00
       5     1     4     4   513     0 -1.555175943E+01  2.600392764E+01 -1.433076636E+01  3.385254553E+01  4.750000000E+00  0.00000E+00  9.000E+00
      -5     1     3     3     0   512 -7.869395413E+00  1.260183453E+01 -5.385778651E+01  5.607100218E+01  4.750000000E+00  0.00000E+00  9.000E+00
      21     1     1     2   501   511  2.847625663E+01 -5.204550897E+00  3.451392819E+02  3.463511346E+02  7.629394531E-06  0.00000E+00  9.000E+00
      21     1     3     3   512   502 -2.267613741E+01 -3.006542598E+00 -1.234719092E+01  2.599422300E+01  2.384185791E-07  0.00000E+00  9.000E+00
      21     1     4     4   507   513  3.231421975E+00  4.186237334E-01  6.558186762E+00  7.323055879E+00  8.429369702E-08  0.00000E+00  9.000E+00
#rwgt            1          17   40.274364191201066                1      404239           0       11110           0
<weights>
0.11673E+02
</weights>
</event>
<event>
     14  10001 -1.35503E+01  1.29437E+01 -1.00000E+00  7.35838E-01
      21    -1     0     0   507   501  0.000000000E+00  0.000000000E+00  1.062710666E+02  1.062710666E+02  0.000000000E+00  0.00000E+00  9.000E+00
      21    -1     0     0   512   502  0.000000000E+00  0.000000000E+00 -3.421780668E+02  3.421780668E+02  0.000000000E+00  0.00000E+00  9.000E+00
      -6     2     1     2     0   502 -5.377988914E+01 -2.777409041E+01 -1.391978464E+02  2.284197353E+02  1.706922917E+02  0.00000E+00  9.000E+00
       6     2     1     2   507     0  4.310068844E+01  2.046006370E+01 -1.028349374E+02  2.057092885E+02  1.716537313E+02  0.00000E+00  9.000E+00
     -24     2     3     3     0     0 -2.690243867E+01  4.309536080E+01 -4.292494689E+01  1.057987333E+02  8.227921711E+01  0.00000E+00  9.000E+00
      24     2     4     4     0     0 -9.875103369E-01  1.428614041E+01  1.122603053E+01  8.310976912E+01  8.109340896E+01  0.00000E+00  9.000E+00
     -11     1     6     6     0     0 -3.603499866E+01 -7.845088326E-01  2.350684325E+01  4.303147990E+01  0.000000000E+00  0.00000E+00  9.000E+00
      12     1     6     6     0     0  3.504748832E+01  1.507064924E+01 -1.228081272E+01  4.007828922E+01  1.105501472E-06  0.00000E+00  9.000E+00
      13     1     5     5     0     0 -4.873053893E+01  8.557948877E+00 -4.205121544E+01  6.493233889E+01  0.000000000E+00  0.00000E+00  9.000E+00
     -14     1     5     5     0     0  2.182810026E+01  3.453741192E+01 -8.737314506E-01  4.086639438E+01  1.123086986E-06  0.00000E+00  9.000E+00
       5     1     4     4   511     0  3.546119417E+01  4.841695414E+00 -8.812769463E+01  9.523650228E+01  4.750000000E+00  0.00000E+00  9.000E+00
      -5     1     3     3     0   502 -2.687745047E+01 -7.086945121E+01 -9.627289948E+01  1.226210020E+02  4.750000000E+00  0.00000E+00  9.000E+00
      21     1     1     2   512   501  1.067920070E+01  7.314026716E+00  6.125783589E+00  1.432010960E+01  2.665600750E-07  0.00000E+00  9.000E+00
      21     1     4     4   507   511  8.627004610E+00  1.332227876E+00 -2.593327333E+01  2.736301711E+01  3.371747881E-07  0.00000E+00  9.000E+00
#rwgt            1          17  -28.931624325432953                1      409139           0         110           0
<weights>
-.13862E+02
</weights>
</event>
<event>
     15  10001  1.35503E+01  1.22765E+01 -1.00000E+00  1.77772E-01
      21    -1     0     0   502   512  0.000000000E+00  0.000000000E+00  8.207421570E+01  8.207421570E+01  0.000000000E+00  0.00000E+00  9.000E+00
      21    -1     0     0   507   502  0.000000000E+00  0.000000000E+00 -5.638138311E+02  5.638138311E+02  0.000000000E+00  0.00000E+00  9.000E+00
      -6     2     1     2     0   501 -2.163160014E+01  8.805991898E+01 -2.760811855E+02  3.381928477E+02  1.730060861E+02  0.00000E+00  9.000E+00
       6     2     1     2   507     0  1.787267014E+01 -9.974675089E+01 -1.496245578E+02  2.503322631E+02  1.732336198E+02  0.00000E+00  9.000E+00
     -24     2     3     3     0     0  1.399974961E+00  7.216911427E+01 -7.377768064E+01  1.328037561E+02  8.356644352E+01  0.00000E+00  9.000E+00
      24     2     4     4     0     0  7.501183525E+01 -4.616137524E+01 -6.791768128E+01  1.364823586E+02  7.910104165E+01  0.00000E+00  9.000E+00
     -11     1     6     6     0     0  1.990051281E+01 -1.393365594E+01  1.742928209E+01  2.989911458E+01  0.000000000E+00  0.00000E+00  9.000E+00
      12     1     6     6     0     0  5.511132244E+01 -3.222771929E+01 -8.534696338E+01  1.065832440E+02  2.861022949E-06  0.00000E+00  9.000E+00
      13     1     5     5     0     0  2.620762303E+01  7.681900170E+01 -7.019800847E+01  1.073115041E+02  0.000000000E+00  0.00000E+00  9.000E+00
     -14     1     5     5     0     0 -2.480764807E+01 -4.649887432E+00 -3.579672163E+00  2.549225193E+01  9.262722890E-07  0.00000E+00  9.000E+00
       5     1     4     4   514     0 -5.647300899E+01 -5.217886914E+01 -8.170347853E+01  1.122936153E+02  4.750000000E+00  0.00000E+00  9.000E+00
      -5     1     3     3     0   511 -2.302644840E+01  1.821673427E+01 -1.440170863E+02  1.470562830E+02  4.750000000E+00  0.00000E+00  9.000E+00
      21     1     3     3   511   501 -5.126699300E-03 -2.325929563E+00 -5.828641859E+01  5.833280867E+01  0.000000000E+00  0.00000E+00  9.000E+00
      21     1     1     2   501   512  3.758929998E+00  1.168683191E+01 -5.603387213E+01  5.736293595E+01  0.000000000E+00  0.00000E+00  9.000E+00
      21     1     4     4   507   514 -6.661561267E-01 -1.406506518E+00 -3.397967673E-03  1.556289213E+00  2.581970722E-08  0.00000E+00  9.000E+00
#rwgt            1          17   21.508114628906007                1      418450           0      110110           0
<weights>
0.10095E+02
</weights>
</event>
<event>
     14  10001 -1.35503E+01  1.71009E+01 -1.00000E+00  2.86161E-01
      21    -1     0     0   512   501  0.000000000E+00  0.000000000E+00  2.244009383E+02  2.244009383E+02  0.000000000E+00  0.00000E+00  9.000E+00
      21    -1     0     0   501   502  0.000000000E+00  0.000000000E+00 -3.399542255E+02  3.399542255E+02  0.000000000E+00  0.00000E+00  9.000E+00
      -6     2     1     2     0   502  6.040001707E+01  6.988150598E+01 -1.842779402E+02  2.683464249E+02  1.718134383E+02  0.00000E+00  9.000E+00
       6     2     1     2   507     0 -7.730866578E+01 -6.732420628E+01  1.254226345E+02  2.367879378E+02  1.727093272E+02  0.00000E+00  9.000E+00
     -24     2     3     3     0     0  1.261282994E+01 -1.105831793E+01 -3.235017971E+01  8.950556650E+01  8.175171210E+01  0.00000E+00  9.000E+00
      24     2     4     4     0     0 -5.824841047E+01  1.136634668E+01  1.711587569E+01  1.014793536E+02  8.051729532E+01  0.00000E+00  9.000E+00
     -11     1     6     6     0     0 -7.663277291E+01  2.447525038E+00  2.329392175E+01  8.013225976E+01  0.000000000E+00  0.00000E+00  9.000E+00
      12     1     6     6     0     0  1.838436245E+01  8.918821647E+00 -6.178046056E+00  2.134709384E+01  5.717076687E-07  0.00000E+00  9.000E+00
      13     1     5     5     0     0 -2.837485212E+01  1.198411980E+01 -2.909778084E+01  4.237254075E+01  0.000000000E+00  0.00000E+00  9.000E+00
     -14     1     5     5     0     0  4.098768206E+01 -2.304243772E+01 -3.252398875E+00  4.713302574E+01  1.219348463E-06  0.00000E+00  9.000E+00
       5     1     4     4   507     0 -1.906025531E+01 -7.869055296E+01  1.083067588E+02  1.353085842E+02  4.750000000E+00  0.00000E+00  9.000E+00
      -5     1     3     3     0   511  3.662386802E+01  6.476324622E+01 -1.240982986E+02  1.447706323E+02  4.750000000E+00  0.00000E+00  9.000E+00
      21     1     1     2   512   507  1.690864871E+01 -2.557299700E+00 -5.669798148E+01  5.922080113E+01  6.743495762E-07  0.00000E+00  9.000E+00
      21     1     3     3   511   502  1.116331911E+01  1.617657768E+01 -2.782946186E+01  3.407022610E+01  4.768371582E-07  0.00000E+00  9.000E+00
#rwgt            1          17  -51.516780281649268                1      428336           0         111           0
<weights>
-.14627E+02
</weights>
</event>
<event>
     15  10001  1.35503E+01  3.65477E+00 -1.00000E+00  1.25252E-01
       2    -1     0     0   513     0  0.000000000E+00  0.000000000E+00  1.025946455E+03  1.025946455E+03  0.000000000E+00  0.00000E+00  9.000E+00
      -2    -1     0     0     0   502  0.000000000E+00  0.000000000E+00 -4.811978654E+01  4.811978654E+01  0.000000000E+00  0.00000E+00  9.000E+00
      -6     2     1     2     0   502  6.341168946E+01  4.071828873E+01  7.646998557E+02  7.871386935E+02  1.707115466E+02  0.00000E+00  9.000E+00
       6     2     1     2   507     0 -6.011388028E+01 -4.229367250E+01  2.128905631E+02  2.832651456E+02  1.717973152E+02  0.00000E+00  9.000E+00
     -24     2     3     3     0     0  3.733655517E+01 -2.117702969E+01  5.469437973E+02  5.545989736E+02  8.117893322E+01  0.00000E+00  9.000E+00
      24     2     4     4     0     0  2.958623749E+01  2.714687560E+00  1.163477859E+02  1.434934805E+02  7.855480044E+01  0.00000E+00  9.000E+00
     -11     1     6     6     0     0  9.205262211E+00 -3.740450993E+01  6.123388191E+01  7.234239773E+01  0.000000000E+00  0.00000E+00  9.000E+00
      12     1     6     6     0     0  2.038097528E+01  4.011919749E+01  5.511390398E+01  7.115108272E+01  1.348699152E-06  0.00000E+00  9.000E+00
      13     1     5     5     0     0  5.543995868E+00  2.617864470E+01  2.982568900E+02  2.994548877E+02  0.000000000E+00  0.00000E+00  9.000E+00
     -14     1     5     5     0     0  3.179255930E+01 -4.735567439E+01  2.486869072E+02  2.551440859E+02  3.814697266E-06  0.00000E+00  9.000E+00
       5     1     4     4   512     0 -1.904020159E+01 -7.753786922E+00  2.265998807E+01  3.096268799E+01  4.750000000E+00  0.00000E+00  9.000E+00
      -5     1     3     3     0   511 -5.048925160E+00  7.570641994E+00  8.660115427E+01  8.720738894E+01  4.750000000E+00  0.00000E+00  9.000E+00
      21     1     3     3   511   502  3.112405945E+01  5.432467642E+01  1.311549041E+02  1.453323310E+02  0.000000000E+00  0.00000E+00  9.000E+00
      21     1     4     4   507   512 -7.065991618E+01 -3.725457314E+01  7.388278917E+01  1.088089772E+02  1.907348633E-06  0.00000E+00  9.000E+00
      21     1     1     2   513   507 -3.297809173E+00  1.575383774E+00  2.362498944E-01  3.662402680E+00  7.092741417E-08  0.00000E+00  9.000E+00
#rwgt            1           8   1.2771612481680377                1      440472           0      111001           0
<weights>
0.17663E+02
</weights>
</event>
<event>
     15  10001  1.35503E+01  7.46898E+01 -1.00000E+00  2.82165E-01
      21    -1     0     0   512   501  0.000000000E+00  0.000000000E+00  1.882151267E+03  1.882151267E+03  0.000000000E+00  0.00000E+00  9.000E+00
      21    -1     0     0   507   502  0.000000000E+00  0.000000000E+00 -4.288287213E+02  4.288287213E+02  0.000000000E+00  0.00000E+00  9.000E+00
      -6     2     1     2     0   501  3.483124793E+01  4.739923457E+01 -2.711795102E+00  1.792141918E+02  1.692644955E+02  0.00000E+00  9.000E+00
       6     2     1     2   507     0 -1.092856983E+02 -4.147459497E+01 -3.040236245E+02  3.701237761E+02  1.757775283E+02  0.00000E+00  9.000E+00
     -24     2     3     3     0     0 -1.568944752E+00  2.825259263E+01 -6.272184395E+01  1.042857742E+02  7.836339968E+01  0.00000E+00  9.000E+00
      24     2     4     4     0     0 -6.051810676E+01 -9.394008560E+01 -2.089237899E+02  2.502343104E+02  8.050390764E+01  0.00000E+00  9.000E+00
     -11     1     6     6     0     0 -6.754967328E+01 -3.241816124E+01 -1.282898982E+02  1.485671347E+02  0.000000000E+00  0.00000E+00  9.000E+00
      12     1     6     6     0     0  7.031566513E+00 -6.152192436E+01 -8.063389179E+01  1.016671757E+02  4.573661350E-06  0.00000E+00  9.000E+00
      13     1     5     5     0     0 -3.368837096E+01  3.465608816E+01 -4.884646810E+01  6.871628795E+01  0.000000000E+00  0.00000E+00  9.000E+00
     -14     1     5     5     0     0  3.211942621E+01 -6.403495530E+00 -1.387537585E+01  3.556948622E+01  1.498437535E-06  0.00000E+00  9.000E+00
       5     1     4     4   514     0 -4.373218013E+01  5.148842857E+01 -8.623488523E+01  1.096475252E+02  4.750000000E+00  0.00000E+00  9.000E+00
      -5     1     3     3     0   511  3.431550826E+01  2.034921317E+01  6.034722373E+01  7.249823789E+01  4.750000000E+00  0.00000E+00  9.000E+00
      21     1     1     2   512   502  7.445445038E+01 -5.924639604E+00  1.760057966E+03  1.761642021E+03  4.825252777E-05  0.00000E+00  9.000E+00
      21     1     3     3   511   501  2.084684418E+00 -1.202571235E+00 -3.371748872E-01  2.430179747E+00  5.202084796E-08  0.00000E+00  9.000E+00
      21     1     4     4   507   514 -5.035411411E+00  9.770620653E-01 -8.864949354E+00  1.024194051E+01  2.064765462E-07  0.00000E+00  9.000E+00
#rwgt            1          17   19.566872661032132                1      445534           0       11110           0
<weights>
0.13520E+02
</weights>
</event>
<event>
     15  10001  1.35503E+01  1.71585E+01 -1.00000E+00  2.51825E-01
      21    -1     0     0   511   501  0.000000000E+00  0.000000000E+00  1.006334989E+02  1.006334989E+02  0.000000000E+00  0.00000E+00  9.000E+00
      21    -1     0     0   507   502  0.000000000E+00  0.000000000E+00 -7.157184204E+02  7.157184204E+02  0.000000000E+00  0.00000E+00  9.000E+00
      -6     2     1     2     0   501  4.001489475E+00  7.062494705E+01 -4.854710896E+01  1.929543040E+02  1.728312662E+02  0.00000E+00  9.000E+00
       6     2     1     2   507     0 -1.385227107E+01 -8.467406993E+01 -5.730346454E+02  6.050502835E+02  1.742284627E+02  0.00000E+00  9.000E+00
     -24     2     3     3     0     0  8.199071159E+00 -2.842664505E+01 -3.847638696E+01  9.301725353E+01  7.935035087E+01  0.00000E+00  9.000E+00
      24     2     4     4     0     0 -2.842168351E+01 -1.047782438E+02 -5.588080933E+02  5.746198076E+02  7.832729800E+01  0.00000E+00  9.000E+00
     -11     1     6     6     0     0 -4.914477660E+01 -3.469386439E+01 -2.248419027E+02  2.327504125E+02  0.000000000E+00  0.00000E+00  9.000E+00
      12     1     6     6     0     0  2.072309309E+01 -7.008437944E+01 -3.339661906E+02  3.418693951E+02  8.529922400E-06  0.00000E+00  9.000E+00
      13     1     5     5     0     0 -2.739007703E+01  1.533100456E-01  7.327326461E+00  2.835365120E+01  0.000000000E+00  0.00000E+00  9.000E+00
     -14     1     5     5     0     0  3.558914819E+01 -2.857995510E+01 -4.580371342E+01  6.466360232E+01  1.168007728E-06  0.00000E+00  9.000E+00
       5     1     4     4   513     0  1.363853331E+01  1.680422639E+01 -8.452142616E+00  2.371482301E+01  4.750000000E+00  0.00000E+00  9.000E+00
      -5     1     3     3     0   512 -4.506820711E+00  6.186132389E+01 -5.116022034E+00  6.241691283E+01  4.750000000E+00  0.00000E+00  9.000E+00
      21     1     1     2   511   502  9.850781597E+00  1.404912288E+01  6.496832801E+00  1.834733191E+01  2.064765462E-07  0.00000E+00  9.000E+00
      21     1     3     3   512   501  3.092390272E-01  3.719026821E+01 -4.954699964E+00  3.752013766E+01  9.920189963E-07  0.00000E+00  9.000E+00
      21     1     4     4   507   513  9.308791282E-01  3.299947509E+00 -5.774409426E+00  6.715652890E+00  0.000000000E+00  0.00000E+00  9.000E+00
#rwgt            1          17   32.616306044536067                1      453710           0       11110           0
<weights>
0.19402E+02
</weights>
</event>
<event>
     14  10001  1.35503E+01  3.63439E+01 -1.00000E+00  7.49760E-01
      21    -1     0     0   512   501  0.000000000E+00  0.000000000E+00  1.034415965E+03  1.034415965E+03  0.000000000E+00  0.00000E+00  9.000E+00
      21    -1     0     0   501   502  0.000000000E+00  0.000000000E+00 -1.503816315E+02  1.503816315E+02  0.000000000E+00  0.00000E+00  9.000E+00
      -6     2     1     2     0   502 -1.463652036E+01 -1.766499556E+02  2.730526650E+01  2.490142337E+02  1.727514877E+02  0.00000E+00  9.000E+00
       6     2     1     2   507     0  4.755544651E+01  1.920519642E+02  8.598117698E+02  8.993089794E+02  1.741691233E+02  0.00000E+00  9.000E+00
     -24     2     3     3     0     0 -4.662504583E+01 -8.522748558E+01  6.920472676E+01  1.433758835E+02  7.955960379E+01  0.00000E+00  9.000E+00
      24     2     4     4     0     0  4.272319504E+00  1.872132716E+02  5.668889918E+02  6.024775764E+02  8.092613473E+01  0.00000E+00  9.000E+00
     -11     1     6     6     0     0  2.554345585E+01  1.416360873E+01  6.830512123E+01  7.428772130E+01  0.000000000E+00  0.00000E+00  9.000E+00
      12     1     6     6     0     0 -2.127113635E+01  1.730496629E+02  4.985838706E+02  5.281898551E+02  1.525878906E-05  0.00000E+00  9.000E+00
      13     1     5     5     0     0 -3.687129084E+01 -6.846670243E+01  6.837872553E+00  7.806367869E+01  0.000000000E+00  0.00000E+00  9.000E+00
     -14     1     5     5     0     0 -9.753754990E+00 -1.676078316E+01  6.236685421E+01  6.531220478E+01  1.348699152E-06  0.00000E+00  9.000E+00
       5     1     4     4   511     0  3.322288990E+01 -4.003681507E+00  2.323558725E+02  2.348012008E+02  4.750000000E+00  0.00000E+00  9.000E+00
      -5     1     3     3     0   502  3.198852547E+01 -9.142246998E+01 -4.189946027E+01  1.056383503E+02  4.750000000E+00  0.00000E+00  9.000E+00
      21     1     1     2   512   507 -3.291892616E+01 -1.540200864E+01 -3.082702921E+00  3.647438316E+01  8.699011516E-07  0.00000E+00  9.000E+00
      21     1     4     4   507   511  1.006023711E+01  8.842374129E+00  6.056690546E+01  6.203020222E+01  9.536743164E-07  0.00000E+00  9.000E+00
#rwgt            1          17   34.622174739874445                1      466603           0         110           0
<weights>
0.12781E+02
</weights>
</event>
<event>
     14  10001  1.35503E+01  2.93079E+02 -1.00000E+00  7.50527E-01
      21    -1     0     0   511   501  0.000000000E+00  0.000000000E+00  1.488469105E+02  1.488469105E+02  0.000000000E+00  0.00000E+00  9.000E+00
      21    -1     0     0   501   502  0.000000000E+00  0.000000000E+00 -9.603741366E+02  9.603741366E+02  0.000000000E+00  0.00000E+00  9.000E+00
      -6     2     1     2     0   502 -7.114966628E+01 -8.390059660E+01 -2.251899595E+02  3.042142266E+02  1.724360540E+02  0.00000E+00  9.000E+00
       6     2     1     2   507     0 -5.126078956E+01 -1.823910219E+02 -2.404356598E+02  3.516378016E+02  1.730482117E+02  0.00000E+00  9.000E+00
     -24     2     3     3     0     0 -9.527537361E+00  1.448023891E+01 -5.764572541E+01  1.003277179E+02  8.026312998E+01  0.00000E+00  9.000E+00
      24     2     4     4     0     0 -4.659814761E+01 -1.696763617E+02 -1.124240240E+02  2.225229228E+02  7.691446497E+01  0.00000E+00  9.000E+00
     -11     1     6     6     0     0  1.496509837E+01 -8.985219581E+01 -5.758625649E+01  1.077661737E+02  0.000000000E+00  0.00000E+00  9.000E+00
      12     1     6     6     0     0 -6.156324599E+01 -7.982416590E+01 -5.483776756E+01  1.147567491E+02  4.101908334E-06  0.00000E+00  9.000E+00
      13     1     5     5     0     0  3.053925528E+01 -6.487420074E+00 -4.229866052E+01  5.257289619E+01  0.000000000E+00  0.00000E+00  9.000E+00
     -14     1     5     5     0     0 -4.006679264E+01  2.096765899E+01 -1.534706489E+01  4.775482171E+01  2.413804141E-06  0.00000E+00  9.000E+00
       5     1     4     4   512     0 -4.462792023E+00 -8.606880494E+00 -1.140572916E+02  1.145671121E+02  4.750000000E+00  0.00000E+00  9.000E+00
      -5     1     3     3     0   502 -6.162212892E+01 -9.838083551E+01 -1.675442340E+02  2.038865087E+02  4.750000000E+00  0.00000E+00  9.000E+00
      21     1     1     2   511   507  1.224104558E+02  2.662916185E+02 -3.459016068E+02  4.533690190E+02  1.144409180E-05  0.00000E+00  9.000E+00
      21     1     4     4   507   512 -1.998499263E-01 -4.107779692E+00 -1.395434421E+01  1.454776672E+01  1.685873940E-07  0.00000E+00  9.000E+00
#rwgt            1          17   64.785022718089238                1      474650           0         110           0
<weights>
0.13707E+02
</weights>
</event>
<event>
     14  10001  1.35503E+01  7.84168E+01 -1.00000E+00  4.58739E-01
       1    -1     0     0   507     0  0.000000000E+00  0.000000000E+00  3.783334117E+02  3.783334117E+02  0.000000000E+00  0.00000E+00  9.000E+00
      21    -1     0     0   512   502  0.000000000E+00  0.000000000E+00 -4.720170702E+02  4.720170702E+02  0.000000000E+00  0.00000E+00  9.000E+00
      -6     2     1     2     0   502  9.280489322E+01 -8.566062922E+01  1.488812567E+02  2.715159763E+02  1.886923559E+02  0.00000E+00  9.000E+00
       6     2     1     2   507     0 -2.114598151E+01  1.175070071E+02  9.709634212E+01  2.302388070E+02  1.712517426E+02  0.00000E+00  9.000E+00
     -24     2     3     3     0     0  3.406831188E+01 -7.148342023E+01  2.138511000E+00  1.126089089E+02  8.003539145E+01  0.00000E+00  9.000E+00
      24     2     4     4     0     0 -3.449766791E+01  1.488994767E+02  7.121918380E+01  1.871581326E+02  8.120868915E+01  0.00000E+00  9.000E+00
     -11     1     6     6     0     0 -4.104611878E+01  9.807242095E+01  8.263681812E+01  1.346544738E+02  0.000000000E+00  0.00000E+00  9.000E+00
      12     1     6     6     0     0  6.548450862E+00  5.082705580E+01 -1.141763432E+01  5.250365876E+01  6.529361695E-07  0.00000E+00  9.000E+00
      13     1     5     5     0     0  3.622558538E+00 -7.171965940E+01  2.333863350E+01  7.550843853E+01  0.000000000E+00  0.00000E+00  9.000E+00
     -14     1     5     5     0     0  3.044575334E+01  2.362391745E-01 -2.120012250E+01  3.710047034E+01  1.118282261E-06  0.00000E+00  9.000E+00
       5     1     4     4   507     0  1.335168640E+01 -3.139246969E+01  2.587715832E+01  4.308067439E+01  4.750000000E+00  0.00000E+00  9.000E+00
      -5     1     3     3     0   511  5.548745237E+01 -1.450647695E+01  1.411458430E+02  1.524270538E+02  4.750000000E+00  0.00000E+00  9.000E+00
       1     1     1     2   512     0 -7.165891171E+01 -3.184637783E+01 -3.396612573E+02  3.485956986E+02  0.000000000E+00  0.00000E+00  9.000E+00
      21     1     3     3   511   502  3.249128981E+00  3.292679530E-01  5.596902682E+00  6.480013592E+00  5.960464478E-08  0.00000E+00  9.000E+00
#rwgt            1           4  0.29882585724789673                1      485088           0         111           0
<weights>
0.83637E+01
</weights>
</event>
<event>
     15  10001  1.35503E+01  1.71963E+01 -1.00000E+00  3.86150E-01
      21    -1     0     0   511   501  0.000000000E+00  0.000000000E+00  9.276948897E+02  9.276948897E+02  0.000000000E+00  0.00000E+00  9.000E+00
      21    -1     0     0   507   502  0.000000000E+00  0.000000000E+00 -4.403996874E+01  4.403996874E+01  0.000000000E+00  0.00000E+00  9.000E+00
      -6     2     1     2     0   501 -1.366765432E+01 -7.297970498E+01  4.788205981E+02  5.137979874E+02  1.708986970E+02  0.00000E+00  9.000E+00
       6     2     1     2   507     0  9.126578069E+00  5.639385769E+01  2.929957369E+02  3.447839611E+02  1.725280162E+02  0.00000E+00  9.000E+00
     -24     2     3     3     0     0 -7.207081396E+01 -4.366568085E+01  2.578118317E+02  2.830157697E+02  8.080898083E+01  0.00000E+00  9.000E+00
      24     2     4     4     0     0 -2.426229460E+01  2.437723710E+01  2.827079985E+02  2.957556691E+02  7.977903692E+01  0.00000E+00  9.000E+00
     -11     1     6     6     0     0 -1.524575277E+00  4.166909205E+01  2.446060456E+02  2.481345504E+02  0.000000000E+00  0.00000E+00  9.000E+00
      12     1     6     6     0     0 -2.273771932E+01 -1.729185495E+01  3.810195300E+01  4.762111874E+01  6.743495762E-07  0.00000E+00  9.000E+00
      13     1     5     5     0     0 -7.434975165E+01 -4.995965235E+01  1.479760005E+02  1.729761520E+02  0.000000000E+00  0.00000E+00  9.000E+00
     -14     1     5     5     0     0  2.278937687E+00  6.293971500E+00  1.098358312E+02  1.100396176E+02  1.907348633E-06  0.00000E+00  9.000E+00
       5     1     4     4   512     0  1.857329884E+01  2.459274617E+01  8.743943128E+00  3.238502177E+01  4.750000000E+00  0.00000E+00  9.000E+00
      -5     1     3     3     0   514  5.805684534E+01 -2.936579428E+01  2.129951825E+02  2.227609872E+02  4.750000000E+00  0.00000E+00  9.000E+00
      21     1     1     2   511   502  4.541076255E+00  1.658584729E+01  1.118385861E+02  1.131529100E+02  3.015782986E-06  0.00000E+00  9.000E+00
      21     1     4     4   507   512  1.481557383E+01  7.423874426E+00  1.543795203E+00  1.664327020E+01  5.187659021E-07  0.00000E+00  9.000E+00
      21     1     3     3   514   501  3.463142928E-01  5.177014519E-02  8.013583857E+00  8.021230577E+00  2.064765462E-07  0.00000E+00  9.000E+00
#rwgt            1          17   3.6743067048810345                1      491066           0       11011           0
<weights>
0.11281E+02
</weights>
</event>
<event>
     15  10001  1.35503E+01  5.11014E+00 -1.00000E+00  3.11160E-01
       1    -1     0     0   511     0  0.000000000E+00  0.000000000E+00  2.023486722E+03  2.023486722E+03  0.000000000E+00  0.00000E+00  9.000E+00
      -1    -1     0     0     0   502  0.000000000E+00  0.000000000E+00 -5.658960132E+01  5.658960132E+01  0.000000000E+00  0.00000E+00  9.000E+00
      -6     2     1     2     0   507  1.450289352E+02  2.442572786E+02  1.021176592E+03  1.073902045E+03  1.725368391E+02  0.00000E+00  9.000E+00
       6     2     1     2   507     0 -1.490831205E+02 -2.411464711E+02  9.445135445E+02  1.000923530E+03  1.713612556E+02  0.00000E+00  9.000E+00
     -24     2     3     3     0     0  6.606936890E+00  1.186065339E+02  4.973817593E+02  5.176194332E+02  8.018791425E+01  0.00000E+00  9.000E+00
      24     2     4     4     0     0 -8.917845806E+01 -1.026738727E+02  2.931712465E+02  3.315635766E+02  7.409658566E+01  0.00000E+00  9.000E+00
     -11     1     6     6     0     0 -9.792756000E+01 -7.795830945E+01  2.112394985E+02  2.455390616E+02  0.000000000E+00  0.00000E+00  9.000E+00
      12     1     6     6     0     0  8.749101943E+00 -2.471556326E+01  8.193174799E+01  8.602451500E+01  1.651812370E-06  0.00000E+00  9.000E+00
      13     1     5     5     0     0  1.239571909E+00  2.719044979E+00 -2.839139925E+00  4.121948524E+00  0.000000000E+00  0.00000E+00  9.000E+00
     -14     1     5     5     0     0  5.367364981E+00  1.158874889E+02  5.002208992E+02  5.134974846E+02  1.321449896E-05  0.00000E+00  9.000E+00
       5     1     4     4   512     0 -2.042670997E+01 -6.161384643E+01  2.189417482E+02  2.284109633E+02  4.750000000E+00  0.00000E+00  9.000E+00
      -5     1     3     3     0   513  1.302936271E+02  1.173497025E+02  4.830449776E+02  5.139089363E+02  4.750000000E+00  0.00000E+00  9.000E+00
      21     1     4     4   507   512 -3.947795249E+01 -7.685875201E+01  4.324005497E+02  4.409489901E+02  5.394796609E-06  0.00000E+00  9.000E+00
      21     1     1     2   511   502  4.054185303E+00 -3.110807458E+00  1.206984089E+00  5.250747766E+00  1.421480181E-07  0.00000E+00  9.000E+00
      21     1     3     3   513   507  8.128371181E+00  8.301042206E+00  4.074985495E+01  4.237367577E+01  6.743495762E-07  0.00000E+00  9.000E+00
#rwgt            1           4  0.12423953649889551                1      496045           0      100111           0
<weights>
0.14674E+02
</weights>
</event>
<event>
     15  10001  1.35503E+01  3.15173E+01 -1.00000E+00  7.52418E-01
      21    -1     0     0   511   501  0.000000000E+00  0.000000000E+00  2.746933527E+03  2.746933527E+03  0.000000000E+00  0.00000E+00  9.000E+00
      21    -1     0     0   507   502  0.000000000E+00  0.000000000E+00 -4.765724517E+01  4.765724517E+01  0.000000000E+00  0.00000E+00  9.000E+00
      -6     2     1     2     0   501 -4.086203478E+01  6.163238326E+01  2.309830637E+03  2.317370672E+03  1.715255236E+02  0.00000E+00  9.000E+00
       6     2     1     2   507     0  1.185487161E+01 -4.930673385E+01  4.030401036E+02  4.428959628E+02  1.764761082E+02  0.00000E+00  9.000E+00
     -24     2     3     3     0     0 -4.991934170E+01  9.178039076E+01  2.167385287E+03  2.171361902E+03  7.961122573E+01  0.00000E+00  9.000E+00
      24     2     4     4     0     0 -2.569799974E-01 -7.481833432E+01  3.784308324E+02  4.018848656E+02  1.127106966E+02  0.00000E+00  9.000E+00
     -11     1     6     6     0     0  5.269344050E+01 -5.319856147E+01  1.702125988E+02  1.859543342E+02  0.000000000E+00  0.00000E+00  9.000E+00
      12     1     6     6     0     0 -5.295042050E+01 -2.161977285E+01  2.082182336E+02  2.159305314E+02  3.814697266E-06  0.00000E+00  9.000E+00
      13     1     5     5     0     0 -3.140479047E+01  8.994469005E+00  2.533164393E+02  2.554141338E+02  0.000000000E+00  0.00000E+00  9.000E+00
     -14     1     5     5     0     0 -1.851455122E+01  8.278592175E+01  1.914068848E+03  1.915947769E+03  5.709316081E-05  0.00000E+00  9.000E+00
       5     1     4     4   512     0  1.270078176E+01  2.749431795E+01  2.371195681E+01  3.875650619E+01  4.750000000E+00  0.00000E+00  9.000E+00
      -5     1     3     3     0   514  7.882051297E+00 -2.861902888E+01  1.312748702E+02  1.346730471E+02  4.750000000E+00  0.00000E+00  9.000E+00
      21     1     1     2   511   502  2.900716317E+01 -1.232564942E+01 -1.359445792E+01  3.432413779E+01  1.272806913E-06  0.00000E+00  9.000E+00
      21     1     4     4   507   512 -5.889301534E-01 -1.982717474E+00  8.973143915E-01  2.254590966E+00  1.328628846E-07  0.00000E+00  9.000E+00
      21     1     3     3   514   501  1.175255618E+00 -1.528978613E+00  1.117047903E+01  1.133572244E+01  1.685873940E-07  0.00000E+00  9.000E+00
#rwgt            1          17   49.463712122031772                1      498255           0       11011           0
<weights>
0.13834E+02
</weights>
</event>
<event>
     15  10001  1.35503E+01  4.81868E+00 -1.00000E+00  1.58295E-01
      21    -1     0     0   511   501  0.000000000E+00  0.000000000E+00  7.700084804E+02  7.700084804E+02  0.000000000E+00  0.00000E+00  9.000E+00
      21    -1     0     0   507   502  0.000000000E+00  0.000000000E+00 -1.086465020E+02  1.086465020E+02  0.000000000E+00  0.00000E+00  9.000E+00
      -6     2     1     2     0   501  9.776593028E+01 -2.517675170E+01  6.441387487E+02  6.744176144E+02  1.724306964E+02  0.00000E+00  9.000E+00
       6     2     1     2   507     0 -1.015034911E+02  2.213531565E+01  1.881493204E+01  1.991626060E+02  1.688751345E+02  0.00000E+00  9.000E+00
     -24     2     3     3     0     0  1.191379071E+02  9.442279538E+00  4.247698050E+02  4.486340372E+02  8.099453398E+01  0.00000E+00  9.000E+00
      24     2     4     4     0     0 -1.287455444E+02  1.201307306E+01  4.432036523E+01  1.588455561E+02  8.091901371E+01  0.00000E+00  9.000E+00
     -11     1     6     6     0     0 -7.169442744E+01 -3.304173649E+01  3.166424596E+01  8.505569792E+01  0.000000000E+00  0.00000E+00  9.000E+00
      12     1     6     6     0     0 -5.705111700E+01  4.505480955E+01  1.265611927E+01  7.378985818E+01  1.272806913E-06  0.00000E+00  9.000E+00
      13     1     5     5     0     0  7.082077878E+01 -1.644494570E+01  3.399913318E+02  3.476781912E+02  0.000000000E+00  0.00000E+00  9.000E+00
     -14     1     5     5     0     0  4.831712828E+01  2.588722524E+01  8.477847319E+01  1.009558460E+02  0.000000000E+00  0.00000E+00  9.000E+00
       5     1     4     4   513     0  2.638496876E+01  1.176987037E+01 -2.319862102E+01  3.735552091E+01  4.750000000E+00  0.00000E+00  9.000E+00
      -5     1     3     3     0   512 -8.646053775E+00 -3.143920408E+01  1.979012219E+02  2.006256064E+02  4.750000000E+00  0.00000E+00  9.000E+00
      21     1     3     3   512   501 -1.272592300E+01 -3.179827149E+00  2.146772178E+01  2.515797082E+01  4.768371582E-07  0.00000E+00  9.000E+00
      21     1     1     2   511   502  3.737560804E+00  3.041436050E+00 -1.591702264E+00  5.074762073E+00  1.861154437E-07  0.00000E+00  9.000E+00
      21     1     4     4   507   513  8.570845992E-01 -1.647627782E+00 -2.306812176E+00  2.961528952E+00  9.424321831E-08  0.00000E+00  9.000E+00
#rwgt            1          17   42.986254730826623                1      508806           0      110110           0
<weights>
0.12263E+02
</weights>
</event>
<event>
     14  10001  1.35503E+01  8.27801E+01 -1.00000E+00  2.20327E-01
      21    -1     0     0   507   501  0.000000000E+00  0.000000000E+00  1.858094341E+03  1.858094341E+03  0.000000000E+00  0.00000E+00  9.000E+00
       2    -1     0     0   501     0  0.000000000E+00  0.000000000E+00 -2.037068211E+02  2.037068211E+02  0.000000000E+00  0.00000E+00  9.000E+00
      -6     2     1     2     0   502  2.930754482E+01  2.899420249E+02  5.203401428E+02  6.209137352E+02  1.727851046E+02  0.00000E+00  9.000E+00
       6     2     1     2   507     0 -7.995572250E+01 -2.244645154E+02  1.257781054E+03  1.292016460E+03  1.746886279E+02  0.00000E+00  9.000E+00
     -24     2     3     3     0     0  4.197575085E+01  2.164958324E+02  2.623584238E+02  3.519356733E+02  7.996478304E+01  0.00000E+00  9.000E+00
      24     2     4     4     0     0 -5.070041193E+01 -5.778484779E+01  7.127999603E+02  7.213458546E+02  7.966453513E+01  0.00000E+00  9.000E+00
     -11     1     6     6     0     0 -4.224055068E+01 -7.606123126E+01  6.370801710E+02  6.429935608E+02  0.000000000E+00  0.00000E+00  9.000E+00
      12     1     6     6     0     0 -8.459861245E+00  1.827638347E+01  7.571978933E+01  7.835229379E+01  0.000000000E+00  0.00000E+00  9.000E+00
      13     1     5     5     0     0  1.072277090E+01  9.770893957E+01  5.983377184E+01  1.150743018E+02  0.000000000E+00  0.00000E+00  9.000E+00
     -14     1     5     5     0     0  3.125297995E+01  1.187868928E+02  2.025246520E+02  2.368613715E+02  6.031565972E-06  0.00000E+00  9.000E+00
       5     1     4     4   507     0 -2.925531057E+01 -1.666796676E+02  5.449810937E+02  5.706706053E+02  4.750000000E+00  0.00000E+00  9.000E+00
      -5     1     3     3     0   512 -1.590506463E+01  6.233561384E+01  2.154254640E+02  2.248763947E+02  4.750000000E+00  0.00000E+00  9.000E+00
       2     1     1     2   502     0  5.064817768E+01 -6.547750949E+01 -1.237336766E+02  1.488709672E+02  0.000000000E+00  0.00000E+00  9.000E+00
      21     1     3     3   512   502  3.236858598E+00  1.111057870E+01  4.255625495E+01  4.410166718E+01  0.000000000E+00  0.00000E+00  9.000E+00
#rwgt            1          17   10.319150918098002                1      514143           0         111           0
<weights>
0.25451E+02
</weights>
</event>
<event>
     15  10001  1.35503E+01  5.96502E+01 -1.00000E+00  4.50276E-01
      21    -1     0     0   507   501  0.000000000E+00  0.000000000E+00  6.438011921E+01  6.438011921E+01  0.000000000E+00  0.00000E+00  9.000E+00
       2    -1     0     0   501     0  0.000000000E+00  0.000000000E+00 -9.265834805E+02  9.265834805E+02  0.000000000E+00  0.00000E+00  9.000E+00
      -6     2     1     2     0   502 -6.266963992E+01 -5.767572755E+01 -2.584169535E+02  3.221714963E+02  1.725142832E+02  0.00000E+00  9.000E+00
       6     2     1     2   507     0  3.265411829E+00  6.308708214E+01 -2.539909000E+02  3.139470071E+02  1.733802270E+02  0.00000E+00  9.000E+00
     -24     2     3     3     0     0 -8.683023483E+01  5.936740066E+00 -1.063594094E+02  1.549537649E+02  7.157940150E+01  0.00000E+00  9.000E+00
      24     2     4     4     0     0  1.573944195E+01  9.462796397E+00 -4.919831587E+01  1.015965234E+02  8.697186168E+01  0.00000E+00  9.000E+00
     -11     1     6     6     0     0  1.333136789E+01 -2.599651844E+01 -5.803462595E+01  6.497354962E+01  0.000000000E+00  0.00000E+00  9.000E+00
      12     1     6     6     0     0  2.408074063E+00  3.545931484E+01  8.836310072E+00  3.662297374E+01  1.643186659E-06  0.00000E+00  9.000E+00
      13     1     5     5     0     0 -5.708448479E+01  1.873227386E+00 -1.538123814E+01  5.915006231E+01  0.000000000E+00  0.00000E+00  9.000E+00
     -14     1     5     5     0     0 -2.974575004E+01  4.063512681E+00 -9.097817124E+01  9.580370255E+01  0.000000000E+00  0.00000E+00  9.000E+00
       5     1     4     4   511     0 -1.375642080E+01  4.194708092E+01 -1.612623395E+02  1.672629706E+02  4.750000000E+00  0.00000E+00  9.000E+00
      -5     1     3     3     0   512  2.433695409E+01 -6.381278692E+01 -1.522190043E+02  1.669058024E+02  4.750000000E+00  0.00000E+00  9.000E+00
       2     1     1     2   502     0  5.940422809E+01 -5.411354589E+00 -3.497955078E+02  3.548450963E+02  0.000000000E+00  0.00000E+00  9.000E+00
      21     1     4     4   507   511  1.282390677E+00  1.167720482E+01 -4.353024465E+01  4.508751310E+01  1.066240300E-06  0.00000E+00  9.000E+00
      21     1     3     3   512   502 -1.763591866E-01  2.003193055E-01  1.614601562E-01  3.119291087E-01  6.969379982E-09  0.00000E+00  9.000E+00
#rwgt            1          17   20.967794400001537                1      522263           0       11011           0
<weights>
0.15119E+02
</weights>
</event>
<event>
     15  10001  1.35503E+01  3.07237E+00 -1.00000E+00  2.37406E-01
      -2    -1     0     0     0   512  0.000000000E+00  0.000000000E+00  1.420694878E+01  1.420694878E+01  0.000000000E+00  0.00000E+00  9.000E+00
       2    -1     0     0   507     0  0.000000000E+00  0.000000000E+00 -2.346772297E+03  2.346772297E+03  0.000000000E+00  0.00000E+00  9.000E+00
      -6     2     1     2     0   501 -1.555345042E+01  3.533090374E+01 -1.242992325E+03  1.255462796E+03  1.722403208E+02  0.00000E+00  9.000E+00
       6     2     1     2   507     0  1.834072988E+01 -3.662338342E+01 -9.872285667E+02  1.003125888E+03  1.731001161E+02  0.00000E+00  9.000E+00
     -24     2     3     3     0     0 -2.749807306E+01 -2.857166428E+01 -4.183667340E+02  4.281993501E+02  8.216736147E+01  0.00000E+00  9.000E+00
      24     2     4     4     0     0 -2.488217992E+01 -5.331881331E+01 -8.837672811E+02  8.894963710E+02  8.183622757E+01  0.00000E+00  9.000E+00
     -11     1     6     6     0     0  4.482365816E+00 -2.708355125E+01 -7.662458593E+01  8.139371917E+01  0.000000000E+00  0.00000E+00  9.000E+00
      12     1     6     6     0     0 -2.936454573E+01 -2.623526206E+01 -8.071426952E+02  8.081026518E+02  1.525878906E-05  0.00000E+00  9.000E+00
      13     1     5     5     0     0 -1.055098498E+01 -5.009916544E+01 -3.611531389E+02  3.647640873E+02  0.000000000E+00  0.00000E+00  9.000E+00
     -14     1     5     5     0     0 -1.694708808E+01  2.152750117E+01 -5.721359515E+01  6.343526283E+01  2.780414531E-06  0.00000E+00  9.000E+00
       5     1     4     4   513     0  4.102783086E+01  1.646864294E+01 -9.508967510E+01  1.049719387E+02  4.750000000E+00  0.00000E+00  9.000E+00
      -5     1     3     3     0   511  1.067148801E+01  4.931443155E+01 -6.849664988E+02  6.868387444E+02  4.750000000E+00  0.00000E+00  9.000E+00
      21     1     3     3   511   501  1.273134630E+00  1.458813646E+01 -1.396590925E+02  1.404247012E+02  1.907348633E-06  0.00000E+00  9.000E+00
      21     1     1     2   501   512 -2.787279465E+00  1.292479680E+00 -1.023444561E+02  1.023905617E+02  1.348699152E-06  0.00000E+00  9.000E+00
      21     1     4     4   507   513  2.195078938E+00  2.267869568E-01 -8.371610522E+00  8.657578564E+00  1.192092896E-07  0.00000E+00  9.000E+00
#rwgt            1           6   17.230296604421039                1      529052           0      110110           0
<weights>
0.12899E+02
</weights>
</event>
<event>
     15  10001  1.35503E+01  5.76127E+01 -1.00000E+00  6.99136E-01
       2    -1     0     0   502     0  0.000000000E+00  0.000000000E+00  1.267946035E+03  1.267946035E+03  0.000000000E+00  0.00000E+00  9.000E+00
      21    -1     0     0   507   502  0.000000000E+00  0.000000000E+00 -1.820908789E+02  1.820908789E+02  0.000000000E+00  0.00000E+00  9.000E+00
      -6     2     1     2     0   501  9.453563094E+00 -1.139392466E+02 -4.723630376E+01  2.125838399E+02  1.728846403E+02  0.00000E+00  9.000E+00
       6     2     1     2   507     0 -6.102669438E+01  8.825968065E+01  1.498370945E+02  2.525122762E+02  1.726188463E+02  0.00000E+00  9.000E+00
     -24     2     3     3     0     0 -5.926322340E+01 -5.924790600E+01 -4.243791179E+01  1.243975726E+02  8.155572147E+01  0.00000E+00  9.000E+00
      24     2     4     4     0     0 -1.711632445E+01 -1.559911412E+01  8.808579378E+01  1.237857242E+02  8.383017074E+01  0.00000E+00  9.000E+00
     -11     1     6     6     0     0  1.929985111E+01  2.092358682E+00 -6.843212987E+00  2.058377472E+01  0.000000000E+00  0.00000E+00  9.000E+00
      12     1     6     6     0     0 -3.641617555E+01 -1.769147281E+01  9.492900676E+01  1.032019495E+02  1.348699152E-06  0.00000E+00  9.000E+00
      13     1     5     5     0     0  2.054380248E+01 -1.433195277E+01 -5.471065875E+00  2.563952520E+01  0.000000000E+00  0.00000E+00  9.000E+00
     -14     1     5     5     0     0 -7.980702588E+01 -4.491595323E+01 -3.696684591E+01  9.875804742E+01  1.846782373E-06  0.00000E+00  9.000E+00
       5     1     4     4   511     0 -3.755619064E+01  8.656805225E+01  5.298474137E+01  1.083256223E+02  4.750000000E+00  0.00000E+00  9.000E+00
      -5     1     3     3     0   512  6.579947592E+01 -5.164977493E+01 -5.243442418E+00  8.394835597E+01  4.750000000E+00  0.00000E+00  9.000E+00
       2     1     1     2   501     0  5.157313129E+01  2.567956593E+01  9.832543654E+02  9.849407978E+02  0.000000000E+00  0.00000E+00  9.000E+00
      21     1     4     4   507   511 -6.354179294E+00  1.729074252E+01  8.766559322E+00  2.040092973E+01  4.129530925E-07  0.00000E+00  9.000E+00
      21     1     3     3   512   501  2.917310573E+00 -3.041565649E+00  4.450504441E-01  4.237911334E+00  9.079320436E-08  0.00000E+00  9.000E+00
#rwgt            1          17   24.257836597821079                1      530941           0       11011           0
<weights>
0.24723E+02
</weights>
</event>
<event>
     15  10001  1.35503E+01  2.58406E+01 -1.00000E+00  2.31224E-01
      21    -1     0     0   511   501  0.000000000E+00  0.000000000E+00  4.530214054E+02  4.530214054E+02  0.000000000E+00  0.00000E+00  9.000E+00
      21    -1     0     0   507   502  0.000000000E+00  0.000000000E+00 -3.890624117E+02  3.890624117E+02  0.000000000E+00  0.00000E+00  9.000E+00
      -6     2     1     2     0   501  2.800257155E-01 -9.960304389E+01  3.666210777E+02  4.168241429E+02  1.714949174E+02  0.00000E+00  9.000E+00
       6     2     1     2   507     0 -2.609736287E+01  9.850683845E+01 -3.308531149E+02  3.870174098E+02  1.730145147E+02  0.00000E+00  9.000E+00
     -24     2     3     3     0     0  2.818506967E+01 -7.519195201E+01  1.129996166E+02  1.602926655E+02  8.047731015E+01  0.00000E+00  9.000E+00
      24     2     4     4     0     0 -7.346909257E+01  5.586958308E+01 -2.780046832E+02  3.035949876E+02  7.977590320E+01  0.00000E+00  9.000E+00
     -11     1     6     6     0     0 -4.141379049E+01  5.101988391E+01 -2.562763897E+02  2.645670398E+02  0.000000000E+00  0.00000E+00  9.000E+00
      12     1     6     6     0     0 -3.205530207E+01  4.849699178E+00 -2.172829344E+01  3.902794779E+01  1.634515429E-06  0.00000E+00  9.000E+00
      13     1     5     5     0     0  5.076151610E+01 -2.124737731E+01  5.929647551E+01  8.089656709E+01  0.000000000E+00  0.00000E+00  9.000E+00
     -14     1     5     5     0     0 -2.257644643E+01 -5.394457470E+01  5.370314113E+01  7.939609839E+01  2.023048729E-06  0.00000E+00  9.000E+00
       5     1     4     4   512     0  2.787478777E+01  2.967364736E+01 -3.091505257E+01  5.134035563E+01  4.750000000E+00  0.00000E+00  9.000E+00
      -5     1     3     3     0   513 -2.429553384E+01 -1.894390266E+01  1.860676564E+02  1.886607529E+02  4.750000000E+00  0.00000E+00  9.000E+00
      21     1     1     2   511   502  2.581733716E+01  1.096205437E+00  2.819103094E+01  3.824226444E+01  5.840038640E-07  0.00000E+00  9.000E+00
      21     1     4     4   507   512  1.949694192E+01  1.296360801E+01 -2.193337910E+01  3.208206658E+01  6.307962682E-07  0.00000E+00  9.000E+00
      21     1     3     3   513   501 -3.609510111E+00 -5.467189229E+00  6.755380465E+01  6.787072450E+01  1.651812370E-06  0.00000E+00  9.000E+00
#rwgt            1          17   41.748176624890647                1      542717           0       11011           0
<weights>
0.11294E+02
</weights>
</event>
<event>
     14  10001  1.35503E+01  5.05687E+01 -1.00000E+00  3.60392E-01
      21    -1     0     0   512   501  0.000000000E+00  0.000000000E+00  4.832703140E+02  4.832703140E+02  0.000000000E+00  0.00000E+00  9.000E+00
      21    -1     0     0   507   502  0.000000000E+00  0.000000000E+00 -2.052157488E+02  2.052157488E+02  0.000000000E+00  0.00000E+00  9.000E+00
      -6     2     1     2     0   501 -4.418382116E+01 -1.622561270E+02  2.771629170E+02  3.669617402E+02  1.719371263E+02  0.00000E+00  9.000E+00
       6     2     1     2   507     0  8.186609658E+01  1.285331485E+02  6.557431245E+01  2.394204846E+02  1.726248822E+02  0.00000E+00  9.000E+00
     -24     2     3     3     0     0 -5.079155997E+01 -1.190778235E+02  9.931814732E+01  1.836409911E+02  8.426510915E+01  0.00000E+00  9.000E+00
      24     2     4     4     0     0  1.242302227E+02  9.428508803E+01  4.647381467E+01  1.814977745E+02  8.036666376E+01  0.00000E+00  9.000E+00
     -11     1     6     6     0     0 -7.113616447E+00  2.680559594E+01  8.928958733E+00  2.913537054E+01  0.000000000E+00  0.00000E+00  9.000E+00
      12     1     6     6     0     0  1.313438392E+02  6.747949209E+01  3.754485593E+01  1.523624040E+02  1.907348633E-06  0.00000E+00  9.000E+00
      13     1     5     5     0     0 -7.936258538E+00  1.320528855E+01  9.345012112E+00  1.801924240E+01  0.000000000E+00  0.00000E+00  9.000E+00
     -14     1     5     5     0     0 -4.285530144E+01 -1.322831120E+02  8.997313520E+01  1.656217487E+02  3.438521648E-06  0.00000E+00  9.000E+00
       5     1     4     4   507     0 -4.236412613E+01  3.424806047E+01  1.910049779E+01  5.792271009E+01  4.750000000E+00  0.00000E+00  9.000E+00
      -5     1     3     3     0   511  4.502348651E+00 -3.921232089E+01  1.647081694E+02  1.694379556E+02  4.750000000E+00  0.00000E+00  9.000E+00
      21     1     1     2   512   502 -3.768227542E+01  3.372297851E+01 -6.468266427E+01  8.210383802E+01  1.348699152E-06  0.00000E+00  9.000E+00
      21     1     3     3   511   501  2.105390167E+00 -3.965982644E+00  1.313660029E+01  1.388279343E+01  0.000000000E+00  0.00000E+00  9.000E+00
#rwgt            1          17   21.430956857526933                1      547327           0         111           0
<weights>
0.94714E+01
</weights>
</event>
<event>
     15  10001  1.35503E+01  6.51439E+01 -1.00000E+00  2.49408E-01
       1    -1     0     0   502     0  0.000000000E+00  0.000000000E+00  1.238385801E+03  1.238385801E+03  0.000000000E+00  0.00000E+00  9.000E+00
      21    -1     0     0   511   502  0.000000000E+00  0.000000000E+00 -8.725169264E+01  8.725169264E+01  0.000000000E+00  0.00000E+00  9.000E+00
      -6     2     1     2     0   507 -1.394719839E+02 -1.097175710E+02  8.928122593E+02  9.265275430E+02  1.727691463E+02  0.00000E+00  9.000E+00
       6     2     1     2   507     0  1.264289207E+02  4.589276723E+01  1.272141885E+02  2.527099994E+02  1.720130110E+02  0.00000E+00  9.000E+00
     -24     2     3     3     0     0 -1.445175055E+02 -8.018934119E+01  5.072882195E+02  5.397228089E+02  8.150909714E+01  0.00000E+00  9.000E+00
      24     2     4     4     0     0  9.441306157E+01  5.248065104E+01  1.556999526E+02  2.055493539E+02  7.962422181E+01  0.00000E+00  9.000E+00
     -11     1     6     6     0     0  2.466471272E+01  3.531272336E+01  1.170944225E+01  4.463684041E+01  0.000000000E+00  0.00000E+00  9.000E+00
      12     1     6     6     0     0  6.974834885E+01  1.716792768E+01  1.439905104E+02  1.609125135E+02  3.814697266E-06  0.00000E+00  9.000E+00
      13     1     5     5     0     0 -1.403361203E+02 -4.895436590E+01  4.551262433E+02  4.787803817E+02  0.000000000E+00  0.00000E+00  9.000E+00
     -14     1     5     5     0     0 -4.181385288E+00 -3.123497528E+01  5.216197620E+01  6.094242714E+01  6.743495762E-07  0.00000E+00  9.000E+00
       5     1     4     4   512     0  2.060992340E+00  3.067144860E+00 -3.387438511E+00  6.905961677E+00  4.750000000E+00  0.00000E+00  9.000E+00
      -5     1     3     3     0   514  1.378574246E+00 -2.161715128E+01  3.064721747E+02  3.072734256E+02  4.750000000E+00  0.00000E+00  9.000E+00
       1     1     1     2   511     0  1.304306320E+01  6.382480380E+01  1.311076610E+02  1.463999517E+02  0.000000000E+00  0.00000E+00  9.000E+00
      21     1     4     4   507   512  2.995486680E+01 -9.655028672E+00 -2.509832562E+01  4.025468386E+01  2.880822652E-06  0.00000E+00  9.000E+00
      21     1     3     3   514   507  3.666947392E+00 -7.911078559E+00  7.905186505E+01  7.953130852E+01  1.348699152E-06  0.00000E+00  9.000E+00
#rwgt            1           4  0.29281461765868838                1      557185           0       11011           0
<weights>
0.12864E+02
</weights>
</event>
<event>
     15  10001  1.35503E+01  4.40108E+01 -1.00000E+00  3.91144E-01
      21    -1     0     0   502   501  0.000000000E+00  0.000000000E+00  1.444749943E+02  1.444749943E+02  0.000000000E+00  0.00000E+00  9.000E+00
      21    -1     0     0   512   502  0.000000000E+00  0.000000000E+00 -1.236497017E+03  1.236497017E+03  0.000000000E+00  0.00000E+00  9.000E+00
      -6     2     1     2     0   501  3.807949596E+01  4.802139362E+01 -3.568484217E+02  4.014447136E+02  1.733809672E+02  0.00000E+00  9.000E+00
       6     2     1     2   507     0 -5.746459965E+01 -8.753303066E+01 -8.410583529E+02  8.648602469E+02  1.721623713E+02  0.00000E+00  9.000E+00
     -24     2     3     3     0     0 -4.503344633E+01  2.236577826E+01 -1.783810820E+02  2.023262945E+02  8.116575440E+01  0.00000E+00  9.000E+00
      24     2     4     4     0     0 -5.162032632E+01  1.112900392E+01 -4.872078531E+02  4.974238197E+02  8.526694215E+01  0.00000E+00  9.000E+00
     -11     1     6     6     0     0  1.495754953E+01 -9.680996385E+00 -2.974156829E+01  3.467002831E+01  0.000000000E+00  0.00000E+00  9.000E+00
      12     1     6     6     0     0 -6.657787585E+01  2.081000030E+01 -4.574662848E+02  4.627537914E+02  9.344061824E-06  0.00000E+00  9.000E+00
      13     1     5     5     0     0 -2.136717271E+01  4.996518761E+01 -7.411070043E+01  9.189924896E+01  0.000000000E+00  0.00000E+00  9.000E+00
     -14     1     5     5     0     0 -2.366627362E+01 -2.759940934E+01 -1.042703816E+02  1.104270455E+02  2.336015456E-06  0.00000E+00  9.000E+00
       5     1     4     4   513     0 -4.787290466E+00 -8.947625728E+01 -3.188726249E+02  3.312570485E+02  4.750000000E+00  0.00000E+00  9.000E+00
      -5     1     3     3     0   511  8.339749985E+01  2.582524444E+01 -1.785215074E+02  1.987827390E+02  4.750000000E+00  0.00000E+00  9.000E+00
      21     1     1     2   512   507  1.938510369E+01  3.951163703E+01  1.058847522E+02  1.146670504E+02  1.348699152E-06  0.00000E+00  9.000E+00
      21     1     3     3   511   501 -2.845575537E-01 -1.696290827E-01  5.416771645E-02  3.356801581E-01  8.277776108E-09  0.00000E+00  9.000E+00
      21     1     4     4   507   513 -1.056982866E+00 -9.185777295E+00 -3.497787486E+01  3.617937875E+01  4.768371582E-07  0.00000E+00  9.000E+00
#rwgt            1          17   17.563823449505854                1      558476           0       11110           0
<weights>
0.15668E+02
</weights>
</event>
<event>
     15  10001  1.35503E+01  9.80373E+01 -1.00000E+00  1.87096E-01
      21    -1     0     0   511   501  0.000000000E+00  0.000000000E+00  1.526541852E+03  1.526541852E+03  0.000000000E+00  0.00000E+00  9.000E+00
       4    -1     0     0   507     0  0.000000000E+00  0.000000000E+00 -2.003465950E+02  2.003465950E+02  0.000000000E+00  0.00000E+00  9.000E+00
      -6     2     1     2     0   501 -2.334313117E+01 -1.619391077E+02 -2.359444367E+01  2.390126819E+02  1.726302058E+02  0.00000E+00  9.000E+00
       6     2     1     2   507     0 -5.881691796E+01  2.154278103E+02  2.318107689E+02  3.656065429E+02  1.733878323E+02  0.00000E+00  9.000E+00
     -24     2     3     3     0     0 -6.286934985E+01 -5.102193421E+01  1.282729998E+01  1.154001282E+02  8.122103817E+01  0.00000E+00  9.000E+00
      24     2     4     4     0     0 -2.283071197E+01  4.966227768E+01  1.438435937E+02  1.743836013E+02  8.204314548E+01  0.00000E+00  9.000E+00
     -11     1     6     6     0     0 -4.618710737E+01  5.330453682E+01  8.190892532E+01  1.080911402E+02  0.000000000E+00  0.00000E+00  9.000E+00
      12     1     6     6     0     0  2.335639540E+01 -3.642259141E+00  6.193466835E+01  6.629246112E+01  1.348699152E-06  0.00000E+00  9.000E+00
      13     1     5     5     0     0 -4.483572452E+01 -1.223761801E+01 -2.964294564E+01  5.512445659E+01  0.000000000E+00  0.00000E+00  9.000E+00
     -14     1     5     5     0     0 -1.803362533E+01 -3.878431620E+01  4.247024562E+01  6.027567161E+01  1.966049969E-06  0.00000E+00  9.000E+00
       5     1     4     4   514     0 -3.108667446E+01  1.506873003E+02  7.973368876E+01  1.733582055E+02  4.750000000E+00  0.00000E+00  9.000E+00
      -5     1     3     3     0   512  1.125500625E+01 -3.484709861E+01 -1.297629017E+01  3.914003135E+01  4.750000000E+00  0.00000E+00  9.000E+00
       4     1     1     2   511     0  8.216004913E+01 -5.348870262E+01  1.117978932E+03  1.122269222E+03  0.000000000E+00  0.00000E+00  9.000E+00
      21     1     3     3   512   501  2.827121244E+01 -7.607007484E+01 -2.344545347E+01  8.447252233E+01  1.469710828E-06  0.00000E+00  9.000E+00
      21     1     4     4   507   514 -4.899531532E+00  1.507823229E+01  8.233486420E+00  1.786473613E+01  0.000000000E+00  0.00000E+00  9.000E+00
#rwgt            1          10   5.0732515271523046E-002           1      568208           0       11110           0
<weights>
0.24050E+02
</weights>
</event>
<event>
     13  10001  1.35503E+01  1.88864E+02 -1.00000E+00  1.12561E-01
       2    -1     0     0   512     0  0.000000000E+00  0.000000000E+00  3.981570264E+03  3.981570264E+03  0.000000000E+00  0.00000E+00  9.000E+00
      -2    -1     0     0     0   502  0.000000000E+00  0.000000000E+00 -5.800358727E+01  5.800358727E+01  0.000000000E+00  0.00000E+00  9.000E+00
      -6     2     1     2     0   502  3.471520099E+01 -2.423622386E+02  4.206422448E+02  5.166834352E+02  1.734280088E+02  0.00000E+00  9.000E+00
       6     2     1     2   507     0  2.616061874E+01  6.357813647E+01  1.492233937E+03  1.503349407E+03  1.690288721E+02  0.00000E+00  9.000E+00
     -24     2     3     3     0     0  7.854623964E+01 -2.177391783E+02  3.103927279E+02  3.954193699E+02  8.020580437E+01  0.00000E+00  9.000E+00
      24     2     4     4     0     0 -4.235691980E+01  5.230254663E+01  1.090829799E+03  1.095955695E+03  8.172863814E+01  0.00000E+00  9.000E+00
     -11     1     6     6     0     0 -2.282881840E+01 -2.020191316E+01  3.537647746E+02  3.550757497E+02  0.000000000E+00  0.00000E+00  9.000E+00
      12     1     6     6     0     0 -1.952810140E+01  7.250445979E+01  7.370650245E+02  7.408799455E+02  0.000000000E+00  0.00000E+00  9.000E+00
      13     1     5     5     0     0  1.779165755E+01 -1.175711629E+01  4.709164326E+00  2.183916415E+01  0.000000000E+00  0.00000E+00  9.000E+00
     -14     1     5     5     0     0  6.075458209E+01 -2.059820620E+02  3.056835635E+02  3.735802058E+02  7.629394531E-06  0.00000E+00  9.000E+00
       5     1     4     4   507     0  6.851753854E+01  1.127558984E+01  4.014041376E+02  4.073937115E+02  4.750000000E+00  0.00000E+00  9.000E+00
      -5     1     3     3     0   502 -4.383103865E+01 -2.462306024E+01  1.102495169E+02  1.212640653E+02  4.750000000E+00  0.00000E+00  9.000E+00
      21     1     1     2   512   507 -6.087581973E+01  1.787841021E+02  2.010690495E+03  2.019541009E+03  3.737624730E-05  0.00000E+00  9.000E+00
#rwgt            2          34   1.2608992067422187E-002           1      574420           0           1           0
<weights>
0.13550E+02
</weights>
</event>
<event>
     15  10001  1.35503E+01  4.85111E+01 -1.00000E+00  3.98443E-01
       1    -1     0     0   507     0  0.000000000E+00  0.000000000E+00  1.662472970E+03  1.662472970E+03  0.000000000E+00  0.00000E+00  9.000E+00
      21    -1     0     0   501   502  0.000000000E+00  0.000000000E+00 -1.036659585E+02  1.036659585E+02  0.000000000E+00  0.00000E+00  9.000E+00
      -6     2     1     2     0   502 -2.115282419E+02  3.738032949E+01  1.406336970E+02  3.093240561E+02  1.725168073E+02  0.00000E+00  9.000E+00
       6     2     1     2   507     0  1.762378725E+02 -4.094928218E+00  8.141746784E+02  8.508712443E+02  1.732769782E+02  0.00000E+00  9.000E+00
     -24     2     3     3     0     0 -2.082462736E+02  3.440169907E+01  1.664875820E+02  2.805787072E+02  8.035115814E+01  0.00000E+00  9.000E+00
      24     2     4     4     0     0  1.173332208E+02  3.853528464E+01  3.470424634E+02  3.779940922E+02  8.478802703E+01  0.00000E+00  9.000E+00
     -11     1     6     6     0     0 -2.356625666E-01 -3.008776907E+00  1.109926412E+02  1.110336646E+02  0.000000000E+00  0.00000E+00  9.000E+00
      12     1     6     6     0     0  1.175688833E+02  4.154406154E+01  2.360498222E+02  2.669604277E+02  4.672030912E-06  0.00000E+00  9.000E+00
      13     1     5     5     0     0 -6.807851718E+01  4.994170159E+01  7.036296907E+01  1.099081684E+02  0.000000000E+00  0.00000E+00  9.000E+00
     -14     1     5     5     0     0 -1.401677564E+02 -1.554000252E+01  9.612461297E+01  1.706705389E+02  5.722045898E-06  0.00000E+00  9.000E+00
       5     1     4     4   512     0  5.790723607E+01 -4.310004336E+01  4.618179316E+02  4.674497045E+02  4.750000000E+00  0.00000E+00  9.000E+00
      -5     1     3     3     0   511 -7.964995599E-01  2.250736369E+00 -2.559647232E+01  2.614272597E+01  4.750000000E+00  0.00000E+00  9.000E+00
       1     1     1     2   501     0  3.529036936E+01 -3.328540127E+01  6.039986356E+02  6.059436277E+02  0.000000000E+00  0.00000E+00  9.000E+00
      21     1     3     3   511   502 -2.485468716E+00  7.278940495E-01 -2.574127162E-01  2.602622868E+00  7.136629544E-08  0.00000E+00  9.000E+00
      21     1     4     4   507   512  9.974156765E-01  4.698305038E-01  5.314283439E+00  5.427447577E+00  5.960464478E-08  0.00000E+00  9.000E+00
#rwgt            1          17   268.93886036709642                1      575098           0       11110           0
<weights>
0.13254E+02
</weights>
</event>
<event>
     15  10001  1.35503E+01  2.78927E+01 -1.00000E+00  3.00530E-01
      21    -1     0     0   502   501  0.000000000E+00  0.000000000E+00  2.178767805E+02  2.178767805E+02  0.000000000E+00  0.00000E+00  9.000E+00
      21    -1     0     0   511   502  0.000000000E+00  0.000000000E+00 -4.230594036E+02  4.230594036E+02  0.000000000E+00  0.00000E+00  9.000E+00
      -6     2     1     2     0   501 -8.249509841E+01  5.230749282E+01  9.101577890E+01  2.176663917E+02  1.719106483E+02  0.00000E+00  9.000E+00
       6     2     1     2   507     0  1.097660328E+02 -4.645099965E+01 -3.234311578E+02  3.842874200E+02  1.698906414E+02  0.00000E+00  9.000E+00
     -24     2     3     3     0     0  4.158044144E+00  1.453013989E+01  8.747200420E+01  1.212927394E+02  8.265689819E+01  0.00000E+00  9.000E+00
      24     2     4     4     0     0  3.094080476E+01 -3.712952259E+01 -6.615264005E+01  1.149171021E+02  8.058432680E+01  0.00000E+00  9.000E+00
     -11     1     6     6     0     0 -8.898469527E+00  1.585540792E+01 -3.947130560E+01  4.345757340E+01  0.000000000E+00  0.00000E+00  9.000E+00
      12     1     6     6     0     0  3.983927429E+01 -5.298493051E+01 -2.668133446E+01  7.145952872E+01  1.118282261E-06  0.00000E+00  9.000E+00
      13     1     5     5     0     0 -3.144767040E+01  8.331144830E-01  7.471361436E+01  8.106648027E+01  0.000000000E+00  0.00000E+00  9.000E+00
     -14     1     5     5     0     0  3.560571454E+01  1.369702540E+01  1.275838983E+01  4.022625913E+01  1.685873940E-06  0.00000E+00  9.000E+00
       5     1     4     4   513     0  7.518772697E+01 -9.807368299E+00 -2.485419153E+02  2.598942572E+02  4.750000000E+00  0.00000E+00  9.000E+00
      -5     1     3     3     0   512 -8.630744079E+01  3.577397107E+01  1.601768370E+00  9.356216919E+01  4.750000000E+00  0.00000E+00  9.000E+00
      21     1     1     2   511   507 -2.727093443E+01 -5.856493173E+00  2.723275573E+01  3.898237244E+01  1.011524364E-06  0.00000E+00  9.000E+00
      21     1     3     3   512   501 -3.457017584E-01  2.003381870E+00  1.942006339E+00  2.811483103E+00  6.989264130E-08  0.00000E+00  9.000E+00
      21     1     4     4   507   513  3.637501100E+00  4.858912444E-01 -8.736602384E+00  9.476060667E+00  1.192092896E-07  0.00000E+00  9.000E+00
#rwgt            1          17   24.329423805028547                1      589663           0       11110           0
<weights>
0.21530E+02
</weights>
</event>
<event>
     15  10001 -1.35503E+01  1.56526E+01 -1.00000E+00  4.98231E-01
      21    -1     0     0   502   512  0.000000000E+00  0.000000000E+00  1.929356185E+01  1.929356185E+01  0.000000000E+00  0.00000E+00  9.000E+00
      21    -1     0     0   507   502  0.000000000E+00  0.000000000E+00 -2.069340878E+03  2.069340878E+03  0.000000000E+00  0.00000E+00  9.000E+00
      -6     2     1     2     0   501  8.063609793E+00 -2.362315375E+00 -5.935605880E+02  6.183293959E+02  1.730504780E+02  0.00000E+00  9.000E+00
       6     2     1     2   507     0  7.477291728E+00  4.955796746E-01 -9.660728803E+02  9.796414662E+02  1.623096940E+02  0.00000E+00  9.000E+00
     -24     2     3     3     0     0  4.817503104E+00 -1.951834383E+00 -1.182957184E+02  1.429100134E+02  8.001485460E+01  0.00000E+00  9.000E+00
      24     2     4     4     0     0 -5.667582423E+01  6.807922238E+00 -5.925367241E+02  6.005385595E+02  7.929877202E+01  0.00000E+00  9.000E+00
     -11     1     6     6     0     0 -3.465586873E+01 -2.476598158E+01 -1.392226921E+02  1.455930668E+02  0.000000000E+00  0.00000E+00  9.000E+00
      12     1     6     6     0     0 -2.201995550E+01  3.157390382E+01 -4.533140319E+02  4.549454928E+02  1.427329020E-05  0.00000E+00  9.000E+00
      13     1     5     5     0     0 -2.193855401E+01 -2.982972813E+01 -8.165983973E+01  8.966293692E+01  0.000000000E+00  0.00000E+00  9.000E+00
     -14     1     5     5     0     0  2.675605711E+01  2.787789374E+01 -3.663587862E+01  5.324707648E+01  1.348699152E-06  0.00000E+00  9.000E+00
       5     1     4     4   514     0  5.809763905E+01 -6.414721912E+00 -3.417204221E+02  3.467158688E+02  4.750000000E+00  0.00000E+00  9.000E+00
      -5     1     3     3     0   511  3.301679549E+00  5.899956518E-01 -4.710922838E+02  4.711281689E+02  4.750000000E+00  0.00000E+00  9.000E+00
      21     1     1     2   501   512 -1.554090152E+01  1.866735700E+00 -4.904138475E+02  4.906635774E+02  0.000000000E+00  0.00000E+00  9.000E+00
      21     1     3     3   511   501 -5.557285961E-02 -1.000476643E+00 -4.172585859E+00  4.291213652E+00  5.960464478E-08  0.00000E+00  9.000E+00
      21     1     4     4   507   514  6.055476907E+00  1.023793488E-01 -3.181573412E+01  3.238703783E+01  3.371747881E-07  0.00000E+00  9.000E+00
#rwgt            1          17  -2.5878129561732841                1      600472           0       11110           0
<weights>
-.12293E+02
</weights>
</event>
<event>
     13  10001  1.35503E+01  2.01841E+01 -1.00000E+00  1.66041E-01
      21    -1     0     0   502   501  0.000000000E+00  0.000000000E+00  7.108707941E+02  7.108707941E+02  0.000000000E+00  0.00000E+00  9.000E+00
      21    -1     0     0   511   502  0.000000000E+00  0.000000000E+00 -6.116498745E+01  6.116498745E+01  0.000000000E+00  0.00000E+00  9.000E+00
      -6     2     1     2     0   501 -5.631492002E+01  6.325632756E+01  2.662382034E+02  3.263323337E+02  1.686335610E+02  0.00000E+00  9.000E+00
       6     2     1     2   507     0  5.419633254E+01 -8.332892612E+01  3.747154997E+02  4.237035173E+02  1.709737188E+02  0.00000E+00  9.000E+00
     -24     2     3     3     0     0 -7.595414936E+01  3.012807899E+01  2.631499585E+02  2.874057369E+02  8.171550045E+01  0.00000E+00  9.000E+00
      24     2     4     4     0     0  2.603548103E+01  1.158147368E+01  9.139498696E+01  1.235467367E+02  7.809465859E+01  0.00000E+00  9.000E+00
     -11     1     6     6     0     0  3.108042471E+01  3.977924504E+01  7.539783634E+01  9.073706443E+01  0.000000000E+00  0.00000E+00  9.000E+00
      12     1     6     6     0     0 -5.044943680E+00 -2.819777135E+01  1.599715062E+01  3.280967226E+01  4.129530925E-07  0.00000E+00  9.000E+00
      13     1     5     5     0     0 -2.870155224E+01 -1.993680549E+01  3.650397421E+01  5.053509124E+01  0.000000000E+00  0.00000E+00  9.000E+00
     -14     1     5     5     0     0 -4.725259712E+01  5.006488448E+01  2.266459843E+02  2.368706457E+02  3.814697266E-06  0.00000E+00  9.000E+00
       5     1     4     4   507     0  2.816085150E+01 -9.491039980E+01  2.833205127E+02  3.001567806E+02  4.750000000E+00  0.00000E+00  9.000E+00
      -5     1     3     3     0   501  1.963922934E+01  3.312824856E+01  3.088244904E+00  3.892659680E+01  4.750000000E+00  0.00000E+00  9.000E+00
      21     1     1     2   511   507  2.118587479E+00  2.007259856E+01  8.752103636E+00  2.199993054E+01  4.616955931E-07  0.00000E+00  9.000E+00
#rwgt            2         113   31.332872758812552                1      623395           0           1           0
<weights>
0.13550E+02
</weights>
</event>
<event>
     13  10001  1.35503E+01  3.11905E+01 -1.00000E+00  1.51875E-01
      21    -1     0     0   512   501  0.000000000E+00  0.000000000E+00  2.345759539E+03  2.345759539E+03  0.000000000E+00  0.00000E+00  9.000E+00
      21    -1     0     0   501   502  0.000000000E+00  0.000000000E+00 -1.976656352E+02  1.976656352E+02  0.000000000E+00  0.00000E+00  9.000E+00
      -6     2     1     2     0   502  3.448833485E+01  9.383265629E+01  1.530732255E+02  2.514114632E+02  1.725754874E+02  0.00000E+00  9.000E+00
       6     2     1     2   507     0 -3.465953736E+01 -6.264266489E+01 -8.979692806E+01  2.069628011E+02  1.721764379E+02  0.00000E+00  9.000E+00
     -24     2     3     3     0     0  3.245010753E+01  2.629773955E+01  1.593793037E+02  1.833861115E+02  8.052405158E+01  0.00000E+00  9.000E+00
      24     2     4     4     0     0 -8.724126287E+01 -2.760306105E+01 -5.368325772E+01  1.340287804E+02  8.190759966E+01  0.00000E+00  9.000E+00
     -11     1     6     6     0     0 -4.293209699E+01  1.267185991E+00 -6.691541821E+01  7.951379696E+01  0.000000000E+00  0.00000E+00  9.000E+00
      12     1     6     6     0     0 -4.430916587E+01 -2.887024704E+01  1.323216050E+01  5.451498341E+01  1.430511475E-06  0.00000E+00  9.000E+00
      13     1     5     5     0     0 -4.156600922E+00  4.164840827E+01  1.215411122E+02  1.285461364E+02  0.000000000E+00  0.00000E+00  9.000E+00
     -14     1     5     5     0     0  3.660670845E+01 -1.535066872E+01  3.783819148E+01  5.483997509E+01  0.000000000E+00  0.00000E+00  9.000E+00
       5     1     4     4   507     0  5.258172550E+01 -3.503960384E+01 -3.611367034E+01  7.293402073E+01  4.750000000E+00  0.00000E+00  9.000E+00
      -5     1     3     3     0   502  2.038227327E+00  6.753491673E+01 -6.306078191E+00  6.802535168E+01  4.750000000E+00  0.00000E+00  9.000E+00
      21     1     1     2   512   507  1.712025121E-01 -3.118999139E+01  2.084817606E+03  2.085050910E+03  0.000000000E+00  0.00000E+00  9.000E+00
#rwgt            2         113  0.59117920341160779                1      627770           0           1           0
<weights>
0.13550E+02
</weights>
</event>
<event>
     14  10001  1.35503E+01  2.45906E+02 -1.00000E+00  7.48906E-01
      21    -1     0     0   511   501  0.000000000E+00  0.000000000E+00  2.106236629E+03  2.106236629E+03  0.000000000E+00  0.00000E+00  9.000E+00
      21    -1     0     0   501   502  0.000000000E+00  0.000000000E+00 -1.727240328E+02  1.727240328E+02  0.000000000E+00  0.00000E+00  9.000E+00
      -6     2     1     2     0   502  1.450919750E+02 -7.182318438E+01  4.237959159E+01  2.410489831E+02  1.734887069E+02  0.00000E+00  9.000E+00
       6     2     1     2   507     0  8.098444723E+01 -2.491996004E+01  7.693992615E+01  2.071287012E+02  1.726356322E+02  0.00000E+00  9.000E+00
     -24     2     3     3     0     0  1.010340911E+02 -5.440040743E+01  9.553370926E+01  1.696867170E+02  8.062009938E+01  0.00000E+00  9.000E+00
      24     2     4     4     0     0  2.315449349E+01  4.580531655E+01  5.998184869E+01  1.123895280E+02  7.999578882E+01  0.00000E+00  9.000E+00
     -11     1     6     6     0     0 -2.933706378E+01  1.889938667E+01  1.400907159E+01  3.760457704E+01  0.000000000E+00  0.00000E+00  9.000E+00
      12     1     6     6     0     0  5.249155728E+01  2.690592988E+01  4.597277710E+01  7.478495091E+01  9.536743164E-07  0.00000E+00  9.000E+00
      13     1     5     5     0     0  3.957225066E+01 -3.649501287E+01 -1.016823589E+00  5.384127522E+01  0.000000000E+00  0.00000E+00  9.000E+00
     -14     1     5     5     0     0  6.146184042E+01 -1.790539456E+01  9.655053285E+01  1.158454418E+02  1.907348633E-06  0.00000E+00  9.000E+00
       5     1     4     4   512     0  4.876008479E+01 -6.201251213E+01  8.286602475E+00  7.946274479E+01  4.750000000E+00  0.00000E+00  9.000E+00
      -5     1     3     3     0   502  4.405788396E+01 -1.742277695E+01 -5.315411768E+01  7.136226609E+01  4.750000000E+00  0.00000E+00  9.000E+00
      21     1     1     2   511   507 -2.260764223E+02  9.674314442E+01  1.814193078E+03  1.830782977E+03  2.157918644E-05  0.00000E+00  9.000E+00
      21     1     4     4   507   512  9.069868946E+00 -8.712764460E+00  8.671474983E+00  1.527642843E+01  2.384185791E-07  0.00000E+00  9.000E+00
#rwgt            1          17   25.454550331339572                1      632193           0         110           0
<weights>
0.12504E+02
</weights>
</event>
<event>
     15  10001  1.35503E+01  3.76921E+01 -1.00000E+00  1.66704E-01
       2    -1     0     0   507     0  0.000000000E+00  0.000000000E+00  2.870729787E+03  2.870729787E+03  0.000000000E+00  0.00000E+00  9.000E+00
      21    -1     0     0   501   502  0.000000000E+00  0.000000000E+00 -7.654537901E+01  7.654537901E+01  0.000000000E+00  0.00000E+00  9.000E+00
      -6     2     1     2     0   502  3.737217904E+01  1.906203475E+02  3.731372593E+02  4.550545357E+02  1.735235418E+02  0.00000E+00  9.000E+00
       6     2     1     2   507     0 -5.265228682E+00 -1.708760425E+02  3.800428390E+02  4.508683123E+02  1.721142965E+02  0.00000E+00  9.000E+00
     -24     2     3     3     0     0 -1.448074284E+01  1.570083835E+02  3.194562780E+02  3.651246768E+02  8.001494667E+01  0.00000E+00  9.000E+00
      24     2     4     4     0     0  5.789106926E+01 -1.405330703E+02  2.683528496E+02  3.186453995E+02  8.012938894E+01  0.00000E+00  9.000E+00
     -11     1     6     6     0     0  4.289482979E+01 -2.383247449E+01  1.174838170E+02  1.273200711E+02  0.000000000E+00  0.00000E+00  9.000E+00
      12     1     6     6     0     0  1.499623946E+01 -1.167005958E+02  1.508690327E+02  1.913253284E+02  4.264961200E-06  0.00000E+00  9.000E+00
      13     1     5     5     0     0  3.125616783E+01  8.402031815E+01  1.431575353E+02  1.689095669E+02  0.000000000E+00  0.00000E+00  9.000E+00
     -14     1     5     5     0     0 -4.573691067E+01  7.298806533E+01  1.762987427E+02  1.962151099E+02  4.672030912E-06  0.00000E+00  9.000E+00
       5     1     4     4   512     0 -6.091907791E+01 -2.766317423E+01  1.080766445E+02  1.271986983E+02  4.750000000E+00  0.00000E+00  9.000E+00
      -5     1     3     3     0   511  4.271341997E+01  6.408005938E+00  3.252887733E+01  5.427880937E+01  4.750000000E+00  0.00000E+00  9.000E+00
       2     1     1     2   501     0 -3.210695035E+01 -1.974430498E+01  2.041004309E+03  2.041352318E+03  0.000000000E+00  0.00000E+00  9.000E+00
      21     1     3     3   511   502  9.139501899E+00  2.720395804E+01  2.115210395E+01  3.565104949E+01  6.307962682E-07  0.00000E+00  9.000E+00
      21     1     4     4   507   512 -2.237220024E+00 -2.679797933E+00  3.613344859E+00  5.024214512E+00  7.300048300E-08  0.00000E+00  9.000E+00
#rwgt            1          17   22.948255336789828                1      644972           0       11110           0
<weights>
0.12257E+02
</weights>
</event>
<event>
     15  10001  1.35503E+01  2.07737E+01 -1.00000E+00  3.07231E-01
      21    -1     0     0   502   501  0.000000000E+00  0.000000000E+00  9.328176790E+02  9.328176790E+02  0.000000000E+00  0.00000E+00  9.000E+00
      -1    -1     0     0     0   502  0.000000000E+00  0.000000000E+00 -7.702610961E+02  7.702610961E+02  0.000000000E+00  0.00000E+00  9.000E+00
      -6     2     1     2     0   501  1.070689358E+02  9.289237783E+01  6.214156346E+02  6.603229993E+02  1.725581687E+02  0.00000E+00  9.000E+00
       6     2     1     2   507     0 -9.183136412E+01 -1.070120131E+02  2.476295741E+02  3.359617986E+02  1.779476151E+02  0.00000E+00  9.000E+00
     -24     2     3     3     0     0  6.390533767E+01  1.210950193E+02  3.587793771E+02  3.923135671E+02  8.024585703E+01  0.00000E+00  9.000E+00
      24     2     4     4     0     0 -9.270434398E+01 -1.281002517E+02  2.464927769E+02  3.124443019E+02  1.088989568E+02  0.00000E+00  9.000E+00
     -11     1     6     6     0     0 -1.072839784E+02 -1.175081110E+02  1.659394432E+02  2.298997760E+02  0.000000000E+00  0.00000E+00  9.000E+00
      12     1     6     6     0     0  1.457963441E+01 -1.059214071E+01  8.055333371E+01  8.254452590E+01  2.132480600E-06  0.00000E+00  9.000E+00
      13     1     5     5     0     0  3.940706992E+01  4.445033817E+01  2.502814453E+02  2.572344292E+02  0.000000000E+00  0.00000E+00  9.000E+00
     -14     1     5     5     0     0  2.449826775E+01  7.664468112E+01  1.084979319E+02  1.350791379E+02  2.336015456E-06  0.00000E+00  9.000E+00
       5     1     4     4   512     0 -3.644858396E-01  3.705940482E+00  7.954446164E-01  6.087863083E+00  4.750000000E+00  0.00000E+00  9.000E+00
      -5     1     3     3     0   511  4.387677734E+01 -2.696174769E+01  2.587540516E+02  2.638718043E+02  4.750000000E+00  0.00000E+00  9.000E+00
      -1     1     1     2     0   507 -1.523757171E+01  1.411963531E+01 -7.064886258E+02  7.067939771E+02  0.000000000E+00  0.00000E+00  9.000E+00
      21     1     4     4   507   512  1.237465697E+00  1.738229808E+01  3.413525829E-01  1.742963366E+01  1.089295523E-06  0.00000E+00  9.000E+00
      21     1     3     3   511   501 -7.131791735E-01 -1.240893762E+00  3.882205931E+00  4.137627914E+00  1.192092896E-07  0.00000E+00  9.000E+00
#rwgt            1          17   15.798876202056475                1      660758           0       11011           0
<weights>
0.12476E+02
</weights>
</event>
<event>
     15  10001  1.35503E+01  1.97382E+02 -1.00000E+00  2.11301E-01
      21    -1     0     0   511   501  0.000000000E+00  0.000000000E+00  9.788364274E+02  9.788364274E+02  0.000000000E+00  0.00000E+00  9.000E+00
      21    -1     0     0   501   502  0.000000000E+00  0.000000000E+00 -2.605923191E+02  2.605923191E+02  0.000000000E+00  0.00000E+00  9.000E+00
      -6     2     1     2     0   502  1.377567898E+01 -3.449618766E+00 -1.317187170E+01  1.733484512E+02  1.722629331E+02  0.00000E+00  9.000E+00
       6     2     1     2   507     0  1.625419852E+02  9.217316811E+01 -5.040398510E+01  2.597291035E+02  1.732133241E+02  0.00000E+00  9.000E+00
     -24     2     3     3     0     0  4.255843796E+01  1.732775875E+01 -5.292685595E+01  1.156513946E+02  9.199196234E+01  0.00000E+00  9.000E+00
      24     2     4     4     0     0  2.386807320E+01  6.846182020E+01  1.903263425E+00  1.083316859E+02  8.047003178E+01  0.00000E+00  9.000E+00
     -11     1     6     6     0     0  1.152704827E+01  8.092112438E+01 -1.597931768E+01  8.328529166E+01  0.000000000E+00  0.00000E+00  9.000E+00
      12     1     6     6     0     0  1.234102493E+01 -1.245930419E+01  1.788258111E+01  2.504639424E+01  7.152557373E-07  0.00000E+00  9.000E+00
      13     1     5     5     0     0 -2.232613704E+01  2.826224450E+01 -1.112228665E+01  3.769504105E+01  0.000000000E+00  0.00000E+00  9.000E+00
     -14     1     5     5     0     0  6.488457500E+01 -1.093448575E+01 -4.180456930E+01  7.795635359E+01  2.286830675E-06  0.00000E+00  9.000E+00
       5     1     4     4   513     0  1.119377361E+02  2.223970694E+01 -4.944924736E+01  1.244686784E+02  4.750000000E+00  0.00000E+00  9.000E+00
      -5     1     3     3     0   512 -2.863838812E+01 -1.393275533E+01  3.934083264E+01  5.083839649E+01  4.750000000E+00  0.00000E+00  9.000E+00
      21     1     1     2   511   507 -1.763176642E+02 -8.872354935E+01  7.818199650E+02  8.063511919E+02  1.868812365E-05  0.00000E+00  9.000E+00
      21     1     4     4   507   513  2.673617583E+01  1.471640976E+00 -2.858001162E+00  2.692873921E+01  3.291774099E-07  0.00000E+00  9.000E+00
      21     1     3     3   512   502 -1.443708614E-01 -6.844622188E+00  4.141516161E-01  6.858660029E+00  1.176861599E-07  0.00000E+00  9.000E+00
#rwgt            1          17   154.73764281793402                1      667882           0       11011           0
<weights>
0.18326E+02
</weights>
</event>
<event>
     15  10001  1.35503E+01  5.30512E+01 -1.00000E+00  2.90953E-01
      21    -1     0     0   507   512  0.000000000E+00  0.000000000E+00  4.593009212E+02  4.593009212E+02  0.000000000E+00  0.00000E+00  9.000E+00
      21    -1     0     0   501   502  0.000000000E+00  0.000000000E+00 -1.187748294E+02  1.187748294E+02  0.000000000E+00  0.00000E+00  9.000E+00
      -6     2     1     2     0   502 -6.615505977E+01 -8.012897105E+01  1.387830912E+02  2.449380153E+02  1.730223715E+02  0.00000E+00  9.000E+00
       6     2     1     2   507     0  1.337949729E+01  8.552989018E+01  1.002016781E+02  2.185730368E+02  1.738948621E+02  0.00000E+00  9.000E+00
     -24     2     3     3     0     0 -3.098939150E+00 -7.898963201E+01  1.409270344E+02  1.807033834E+02  8.089696143E+01  0.00000E+00  9.000E+00
      24     2     4     4     0     0 -5.682578852E+01  5.788568571E+01  4.570138932E+01  1.224102847E+02  7.947161731E+01  0.00000E+00  9.000E+00
     -11     1     6     6     0     0 -5.662633752E+01  9.810437818E-01  2.392285351E+01  6.148013881E+01  0.000000000E+00  0.00000E+00  9.000E+00
      12     1     6     6     0     0 -1.994510000E-01  5.690464193E+01  2.177853581E+01  6.093014587E+01  2.064765462E-06  0.00000E+00  9.000E+00
      13     1     5     5     0     0  1.786108529E+01 -8.152807910E+01  7.765108119E+01  1.139979669E+02  0.000000000E+00  0.00000E+00  9.000E+00
     -14     1     5     5     0     0 -2.096002444E+01  2.538447094E+00  6.327595320E+01  6.670541651E+01  2.336015456E-06  0.00000E+00  9.000E+00
       5     1     4     4   511     0  6.424382674E+01  3.127669214E+01  5.281770847E+01  8.898187216E+01  4.750000000E+00  0.00000E+00  9.000E+00
      -5     1     3     3     0   513 -5.623418460E+01  1.048895847E+00 -4.672401757E+00  5.663724515E+01  4.750000000E+00  0.00000E+00  9.000E+00
      21     1     1     2   501   512  5.277556248E+01 -5.400919123E+00  1.015413226E+02  1.145646984E+02  1.348699152E-06  0.00000E+00  9.000E+00
      21     1     4     4   507   511  5.961459069E+00 -3.632487679E+00  1.682580280E+00  7.180879986E+00  1.074538015E-07  0.00000E+00  9.000E+00
      21     1     3     3   513   502 -6.821936016E+00 -2.188234892E+00  2.528458548E+00  7.597386760E+00  2.086162567E-07  0.00000E+00  9.000E+00
#rwgt            1          17   15.633729676321366                1      671690           0       11011           0
<weights>
-.27154E+01
</weights>
</event>
<event>
     13  10001  1.35503E+01  9.67984E+01 -1.00000E+00  1.24467E-01
      21    -1     0     0   502   501  0.000000000E+00  0.000000000E+00  5.590883019E+02  5.590883019E+02  0.000000000E+00  0.00000E+00  9.000E+00
      21    -1     0     0   507   511  0.000000000E+00  0.000000000E+00 -1.787949303E+02  1.787949303E+02  0.000000000E+00  0.00000E+00  9.000E+00
      -6     2     1     2     0   501  1.132438187E+02  2.590487853E+01  3.455541296E+02  4.021013369E+02  1.696543646E+02  0.00000E+00  9.000E+00
       6     2     1     2   507     0 -1.703660806E+01 -3.658643260E+01  1.137059329E+02  2.108592742E+02  1.729270981E+02  0.00000E+00  9.000E+00
     -24     2     3     3     0     0  9.748568886E+01  1.008916089E+00  3.484588632E+02  3.721158808E+02  8.684567881E+01  0.00000E+00  9.000E+00
      24     2     4     4     0     0 -6.141410053E+01 -5.531685710E+01  3.897887400E+01  1.218262103E+02  8.056442431E+01  0.00000E+00  9.000E+00
     -11     1     6     6     0     0 -4.355305598E+01  1.243924956E+01  1.344189903E+01  4.724709794E+01  0.000000000E+00  0.00000E+00  9.000E+00
      12     1     6     6     0     0 -1.786104456E+01 -6.775610666E+01  2.553697498E+01  7.457911232E+01  1.685873940E-06  0.00000E+00  9.000E+00
      13     1     5     5     0     0 -6.564892198E+00  2.273561991E+01  7.830944334E+01  8.180693820E+01  0.000000000E+00  0.00000E+00  9.000E+00
     -14     1     5     5     0     0  1.040505811E+02 -2.172670382E+01  2.701494199E+02  2.903089426E+02  3.814697266E-06  0.00000E+00  9.000E+00
       5     1     4     4   507     0  4.437749248E+01  1.873042450E+01  7.472705886E+01  8.903306389E+01  4.750000000E+00  0.00000E+00  9.000E+00
      -5     1     3     3     0   501  1.575812986E+01  2.489596244E+01 -2.904733583E+00  2.998545614E+01  4.750000000E+00  0.00000E+00  9.000E+00
      21     1     1     2   502   511 -9.620721067E+01  1.068155407E+01 -7.896669096E+01  1.249226211E+02  9.536743164E-07  0.00000E+00  9.000E+00
#rwgt            2         113   3.8846050211210814                1      679212           0           1           0
<weights>
0.13550E+02
</weights>
</event>
<event>
     15  10001  1.35503E+01  7.33533E+01 -1.00000E+00  2.72088E-01
      21    -1     0     0   512   501  0.000000000E+00  0.000000000E+00  1.048732773E+02  1.048732773E+02  0.000000000E+00  0.00000E+00  9.000E+00
      21    -1     0     0   507   502  0.000000000E+00  0.000000000E+00 -8.348887095E+02  8.348887095E+02  0.000000000E+00  0.00000E+00  9.000E+00
      -6     2     1     2     0   501 -3.240433858E+01  8.131521755E+01 -2.949110045E+01  1.952216173E+02  1.719870609E+02  0.00000E+00  9.000E+00
       6     2     1     2   507     0 -2.940790212E+01 -4.181898685E+01 -3.959870960E+02  4.312934488E+02  1.630785284E+02  0.00000E+00  9.000E+00
     -24     2     3     3     0     0 -3.953820494E+00 -9.899642755E+00 -5.081391582E+01  9.701127140E+01  8.194813673E+01  0.00000E+00  9.000E+00
      24     2     4     4     0     0 -8.422167324E+00  3.460464850E+01 -1.675441931E+02  1.893648512E+02  8.074388915E+01  0.00000E+00  9.000E+00
     -11     1     6     6     0     0 -4.469306211E+01  1.610095715E+01 -9.253164907E+01  1.040135410E+02  0.000000000E+00  0.00000E+00  9.000E+00
      12     1     6     6     0     0  3.627089478E+01  1.850369135E+01 -7.501254403E+01  8.535131026E+01  9.536743164E-07  0.00000E+00  9.000E+00
      13     1     5     5     0     0 -2.188619396E+01  3.099763672E+01 -2.479330834E+01  4.532733289E+01  0.000000000E+00  0.00000E+00  9.000E+00
     -14     1     5     5     0     0  1.793237346E+01 -4.089727948E+01 -2.602060748E+01  5.168393851E+01  1.011524364E-06  0.00000E+00  9.000E+00
       5     1     4     4   511     0 -2.076305343E+01 -7.459129734E+01 -2.196935575E+02  2.329866686E+02  4.750000000E+00  0.00000E+00  9.000E+00
      -5     1     3     3     0   513 -1.924486795E+01  6.665738606E+01  1.746539461E+01  7.170198440E+01  4.750000000E+00  0.00000E+00  9.000E+00
      21     1     1     2   512   502  6.181224070E+01 -3.949623069E+01 -3.045372358E+02  3.132469207E+02  0.000000000E+00  0.00000E+00  9.000E+00
      21     1     3     3   513   501 -9.205650131E+00  2.455747424E+01  3.857420764E+00  2.650836152E+01  4.129530925E-07  0.00000E+00  9.000E+00
      21     1     4     4   507   511 -2.226813662E-01 -1.832338020E+00 -8.749345383E+00  8.941929000E+00  1.685873940E-07  0.00000E+00  9.000E+00
#rwgt            1          17   43.617897939384733                1      683203           0       11110           0
<weights>
0.12107E+02
</weights>
</event>
<event>
     15  10001  1.35503E+01  1.02083E+02 -1.00000E+00  5.64292E-01
       1    -1     0     0   507     0  0.000000000E+00  0.000000000E+00  1.116569596E+03  1.116569596E+03  0.000000000E+00  0.00000E+00  9.000E+00
      21    -1     0     0   501   502  0.000000000E+00  0.000000000E+00 -1.731689404E+02  1.731689404E+02  0.000000000E+00  0.00000E+00  9.000E+00
      -6     2     1     2     0   502 -3.412639592E+01 -3.063399070E+01 -5.271376897E+01  1.868369235E+02  1.732808191E+02  0.00000E+00  9.000E+00
       6     2     1     2   507     0  1.183503634E+02  8.831601928E+01  2.078282642E+02  3.080330930E+02  1.728735701E+02  0.00000E+00  9.000E+00
     -24     2     3     3     0     0 -2.944183167E+00  4.525557682E+01 -4.673578426E+01  1.042036690E+02  8.134762225E+01  0.00000E+00  9.000E+00
      24     2     4     4     0     0  1.211347369E+02  9.812272713E+00  1.159951723E+02  1.863138640E+02  8.054856119E+01  0.00000E+00  9.000E+00
     -11     1     6     6     0     0  7.015504134E+01  4.515437748E+01  7.276486236E+01  1.107039874E+02  0.000000000E+00  0.00000E+00  9.000E+00
      12     1     6     6     0     0  5.097969561E+01 -3.534210477E+01  4.323030995E+01  7.560987655E+01  2.132480600E-06  0.00000E+00  9.000E+00
      13     1     5     5     0     0  3.210594654E+01  1.702451487E+01 -4.673098411E+01  5.919806404E+01  0.000000000E+00  0.00000E+00  9.000E+00
     -14     1     5     5     0     0 -3.505012971E+01  2.823106196E+01 -4.800151550E-03  4.500560493E+01  1.840718232E-06  0.00000E+00  9.000E+00
       5     1     4     4   511     0 -1.228517866E+00  7.807804854E+01  8.935805415E+01  1.187649581E+02  4.750000000E+00  0.00000E+00  9.000E+00
      -5     1     3     3     0   512 -3.126895363E+01 -7.342753958E+01 -5.933087994E+00  8.016929002E+01  4.750000000E+00  0.00000E+00  9.000E+00
       1     1     1     2   501     0 -8.422396750E+01 -5.768202857E+01  7.882861602E+02  7.948685196E+02  0.000000000E+00  0.00000E+00  9.000E+00
      21     1     4     4   507   511 -1.555855661E+00  4.256980200E-01  2.475037714E+00  2.954271032E+00  1.115100797E-07  0.00000E+00  9.000E+00
      21     1     3     3   512   502  8.674087572E-02 -2.462027951E+00 -4.489671599E-02  2.463964554E+00  2.258337224E-08  0.00000E+00  9.000E+00
#rwgt            1          17   35.209032361537403                1      694976           0       11011           0
<weights>
0.14592E+02
</weights>
</event>
<event>
     15  10001  1.35503E+01  2.95051E+01 -1.00000E+00  3.85957E-01
       1    -1     0     0   507     0  0.000000000E+00  0.000000000E+00  3.486208453E+02  3.486208453E+02  0.000000000E+00  0.00000E+00  9.000E+00
      21    -1     0     0   501   502  0.000000000E+00  0.000000000E+00 -5.781885834E+02  5.781885834E+02  0.000000000E+00  0.00000E+00  9.000E+00
      -6     2     1     2     0   502  3.627385076E+01 -1.025191045E+02 -3.919204811E+02  4.417579201E+02  1.724019647E+02  0.00000E+00  9.000E+00
       6     2     1     2   507     0 -2.019199287E+01  7.778200129E+01 -1.027576936E+02  2.183042611E+02  1.750424250E+02  0.00000E+00  9.000E+00
     -24     2     3     3     0     0 -2.185333544E+01 -1.356725220E+01 -2.503721545E+02  2.641845710E+02  8.028470064E+01  0.00000E+00  9.000E+00
      24     2     4     4     0     0 -2.990570159E+01  4.415588038E+01 -1.338490668E+02  1.649315771E+02  8.026680313E+01  0.00000E+00  9.000E+00
     -11     1     6     6     0     0  1.443283568E+01  2.151683340E+01 -4.453012373E+00  2.628897458E+01  0.000000000E+00  0.00000E+00  9.000E+00
      12     1     6     6     0     0 -4.433853727E+01  2.263904698E+01 -1.293960544E+02  1.386426025E+02  3.303624740E-06  0.00000E+00  9.000E+00
      13     1     5     5     0     0 -3.471057185E+01 -2.167618007E+01 -5.674659218E+01  6.996324968E+01  0.000000000E+00  0.00000E+00  9.000E+00
     -14     1     5     5     0     0  1.285723641E+01  8.108927874E+00 -1.936255624E+02  1.942213213E+02  3.814697266E-06  0.00000E+00  9.000E+00
       5     1     4     4   512     0  5.037999228E+00  3.253899031E+01  3.415411112E+01  4.767843468E+01  4.750000000E+00  0.00000E+00  9.000E+00
      -5     1     3     3     0   511  5.740953895E+01 -8.941661022E+01 -1.404136695E+02  1.761526225E+02  4.750000000E+00  0.00000E+00  9.000E+00
       1     1     1     2   501     0 -1.608185789E+01  2.473710320E+01  2.651104366E+02  2.667472474E+02  0.000000000E+00  0.00000E+00  9.000E+00
      21     1     4     4   507   512  4.675709493E+00  1.087130611E+00 -3.062737950E+00  5.694249378E+00  1.519626234E-07  0.00000E+00  9.000E+00
      21     1     3     3   511   502  7.176472407E-01  4.647579261E-01 -1.134657013E+00  1.420726585E+00  4.712160915E-08  0.00000E+00  9.000E+00
#rwgt            1          17   15.412323883898054                1      702659           0       11011           0
<weights>
0.13181E+02
</weights>
</event>
<event>
     15  10001  1.35503E+01  3.58949E+01 -1.00000E+00  1.43016E-01
       2    -1     0     0   507     0  0.000000000E+00  0.000000000E+00  8.824342753E+02  8.824342753E+02  0.000000000E+00  0.00000E+00  9.000E+00
      21    -1     0     0   501   502  0.000000000E+00  0.000000000E+00 -2.659881722E+02  2.659881722E+02  0.000000000E+00  0.00000E+00  9.000E+00
      -6     2     1     2     0   502  9.546441771E+01  1.506496678E+02 -1.359874215E+02  2.830270115E+02  1.726352599E+02  0.00000E+00  9.000E+00
       6     2     1     2   507     0 -5.956958999E+01 -1.505871954E+02  1.961098968E+02  3.079150135E+02  1.735728218E+02  0.00000E+00  9.000E+00
     -24     2     3     3     0     0  1.114605035E+02  1.301259488E+02 -1.364795939E+02  2.326251391E+02  7.830433835E+01  0.00000E+00  9.000E+00
      24     2     4     4     0     0  2.104170767E+01 -3.321928272E+01  1.069588651E+02  1.393696263E+02  8.023353228E+01  0.00000E+00  9.000E+00
     -11     1     6     6     0     0  7.936992436E+00  2.476798877E+01  5.320334099E+01  5.922030572E+01  0.000000000E+00  0.00000E+00  9.000E+00
      12     1     6     6     0     0  1.310471524E+01 -5.798727149E+01  5.375552411E+01  8.014932057E+01  1.168007728E-06  0.00000E+00  9.000E+00
      13     1     5     5     0     0  4.775381867E+01  9.332968945E+01 -4.213789300E+01  1.129887612E+02  0.000000000E+00  0.00000E+00  9.000E+00
     -14     1     5     5     0     0  6.370668485E+01  3.679625936E+01 -9.434170087E+01  1.196363779E+02  3.303624740E-06  0.00000E+00  9.000E+00
       5     1     4     4   512     0 -8.034644952E+01 -1.176991326E+02  8.869486556E+01  1.679225400E+02  4.750000000E+00  0.00000E+00  9.000E+00
      -5     1     3     3     0   511  5.664274492E+00  5.874184095E-01  1.562950911E+01  1.729951216E+01  4.750000000E+00  0.00000E+00  9.000E+00
      21     1     3     3   511   502 -2.166036031E+01  1.993630053E+01 -1.513733675E+01  3.310236021E+01  9.386548846E-07  0.00000E+00  9.000E+00
       2     1     1     2   501     0 -3.589482771E+01 -6.247236031E-02  5.563236278E+02  5.574804224E+02  0.000000000E+00  0.00000E+00  9.000E+00
      21     1     4     4   507   512 -2.648481506E-01  3.312198948E-01  4.561661514E-01  6.228472681E-01  1.580506819E-08  0.00000E+00  9.000E+00
#rwgt            1          17   20.961987853946933                1      709906           0      110110           0
<weights>
0.15333E+02
</weights>
</event>
<event>
     15  10001  1.35503E+01  1.11696E+01 -1.00000E+00  3.64168E-01
      21    -1     0     0   511   501  0.000000000E+00  0.000000000E+00  1.131357992E+03  1.131357992E+03  0.000000000E+00  0.00000E+00  9.000E+00
      21    -1     0     0   507   502  0.000000000E+00  0.000000000E+00 -4.178633480E+01  4.178633480E+01  0.000000000E+00  0.00000E+00  9.000E+00
      -6     2     1     2     0   501  4.940815409E+01  1.695396675E+01  6.037777630E+02  6.300103582E+02  1.721535992E+02  0.00000E+00  9.000E+00
       6     2     1     2   507     0 -5.590723216E+01 -2.603815534E+01  2.649235053E+02  3.219813308E+02  1.722901900E+02  0.00000E+00  9.000E+00
     -24     2     3     3     0     0 -3.696156815E+01 -4.553507941E+00  3.655684249E+02  3.753349196E+02  7.647964866E+01  0.00000E+00  9.000E+00
      24     2     4     4     0     0 -2.651685005E+01 -2.798338466E+01  4.570223634E+01  1.000479496E+02  8.021648615E+01  0.00000E+00  9.000E+00
     -11     1     6     6     0     0  3.861132238E+00  1.042610457E+01  4.968687988E+01  5.091559713E+01  0.000000000E+00  0.00000E+00  9.000E+00
      12     1     6     6     0     0 -3.037798229E+01 -3.840948923E+01 -3.984643539E+00  4.913235243E+01  1.189108929E-06  0.00000E+00  9.000E+00
      13     1     5     5     0     0  1.639324788E+01  2.037401222E+01  1.165502995E+02  1.194479437E+02  0.000000000E+00  0.00000E+00  9.000E+00
     -14     1     5     5     0     0 -5.335481604E+01 -2.492752016E+01  2.490181254E+02  2.558869759E+02  0.000000000E+00  0.00000E+00  9.000E+00
       5     1     4     4   512     0 -1.513749427E+01  8.072430036E+00  8.680562289E+01  8.861199990E+01  4.750000000E+00  0.00000E+00  9.000E+00
      -5     1     3     3     0   513  8.563399627E+01  2.249417370E+01  2.364536467E+02  2.525313024E+02  4.750000000E+00  0.00000E+00  9.000E+00
      21     1     4     4   507   512 -1.425288784E+01 -6.127200713E+00  1.324156460E+02  1.333213813E+02  2.697398305E-06  0.00000E+00  9.000E+00
      21     1     1     2   511   502  6.499078073E+00  9.084188587E+00  2.208703886E+02  2.211526375E+02  2.697398305E-06  0.00000E+00  9.000E+00
      21     1     3     3   513   501  7.357259762E-01 -9.866990042E-01  1.755691413E+00  2.144136184E+00  2.980232239E-08  0.00000E+00  9.000E+00
#rwgt            1          17   2.8072708690882355                1      716073           0      100111           0
<weights>
0.28854E+02
</weights>
</event>
<event>
     15  10001  1.35503E+01  4.06314E+01 -1.00000E+00  1.57631E-01
      21    -1     0     0   511   501  0.000000000E+00  0.000000000E+00  2.750853759E+03  2.750853759E+03  0.000000000E+00  0.00000E+00  9.000E+00
      21    -1     0     0   501   502  0.000000000E+00  0.000000000E+00 -3.165058863E+01  3.165058863E+01  0.000000000E+00  0.00000E+00  9.000E+00
      -6     2     1     2     0   502  2.495849439E+01  3.530640767E+01  9.303176292E+02  9.472239958E+02  1.728378955E+02  0.00000E+00  9.000E+00
       6     2     1     2   507     0 -3.573251798E+01  3.870542524E+00  1.785652747E+03  1.794520519E+03  1.745175263E+02  0.00000E+00  9.000E+00
     -24     2     3     3     0     0 -2.877978579E+01  1.794176846E+01  2.772284899E+02  2.907509579E+02  8.081027614E+01  0.00000E+00  9.000E+00
      24     2     4     4     0     0  4.470168422E+01 -1.146481108E+01  8.379412959E+02  8.430794661E+02  8.067024401E+01  0.00000E+00  9.000E+00
     -11     1     6     6     0     0 -6.921435394E+00  9.381775039E+00  5.311264529E+02  5.312543957E+02  0.000000000E+00  0.00000E+00  9.000E+00
      12     1     6     6     0     0  5.162311962E+01 -2.084658612E+01  3.068148430E+02  3.118250704E+02  6.607249480E-06  0.00000E+00  9.000E+00
      13     1     5     5     0     0 -1.903759997E+01  5.024995274E+01  1.786695745E+02  1.865751988E+02  0.000000000E+00  0.00000E+00  9.000E+00
     -14     1     5     5     0     0 -9.742185819E+00 -3.230818428E+01  9.855891547E+01  1.041757591E+02  1.907348633E-06  0.00000E+00  9.000E+00
       5     1     4     4   514     0 -7.027332930E+01  1.860050471E+01  7.817966580E+02  7.851833522E+02  4.750000000E+00  0.00000E+00  9.000E+00
      -5     1     3     3     0   512  4.815073221E+01  1.530089351E+01  3.864761288E+02  3.897934978E+02  4.750000000E+00  0.00000E+00  9.000E+00
      21     1     1     2   511   507  1.077402360E+01 -3.917695020E+01  3.232794312E+00  4.075983280E+01  3.709162132E-06  0.00000E+00  9.000E+00
      21     1     3     3   512   502  5.587547968E+00  2.063745711E+00  2.666130105E+02  2.666795401E+02  3.814697266E-06  0.00000E+00  9.000E+00
      21     1     4     4   507   514 -1.016087291E+01 -3.265151109E+00  1.659147928E+02  1.662577006E+02  2.697398305E-06  0.00000E+00  9.000E+00
#rwgt            1          17   11.166792023210984                1      721739           0       11110           0
<weights>
0.19283E+02
</weights>
</event>
<event>
     15  10001  1.35503E+01  8.08144E+00 -1.00000E+00  6.30023E-01
      21    -1     0     0   507   501  0.000000000E+00  0.000000000E+00  3.833337028E+02  3.833337028E+02  0.000000000E+00  0.00000E+00  9.000E+00
      21    -1     0     0   501   512  0.000000000E+00  0.000000000E+00 -7.155623718E+02  7.155623718E+02  0.000000000E+00  0.00000E+00  9.000E+00
      -6     2     1     2     0   502  6.275905874E+01  5.566319080E+01 -6.449932310E+02  6.725123174E+02  1.709370022E+02  0.00000E+00  9.000E+00
       6     2     1     2   507     0 -5.985810079E+01 -4.812036747E+01  9.684328123E+01  2.103112944E+02  1.701577428E+02  0.00000E+00  9.000E+00
     -24     2     3     3     0     0  2.812623708E+01 -1.254736836E+01 -1.567583600E+02  1.781958638E+02  7.894340231E+01  0.00000E+00  9.000E+00
      24     2     4     4     0     0 -7.776356138E+01 -5.428678465E+01  1.232361848E+02  1.753935019E+02  8.112642487E+01  0.00000E+00  9.000E+00
     -11     1     6     6     0     0  3.156380093E+00 -1.878106523E+00 -1.016107577E+01  1.080451203E+01  0.000000000E+00  0.00000E+00  9.000E+00
      12     1     6     6     0     0 -8.091994147E+01 -5.240867812E+01  1.333972606E+02  1.645889899E+02  9.536743164E-06  0.00000E+00  9.000E+00
      13     1     5     5     0     0 -1.967931323E+00  3.121267224E+01 -6.613225752E+01  7.315448822E+01  0.000000000E+00  0.00000E+00  9.000E+00
     -14     1     5     5     0     0  3.009416841E+01 -4.376004060E+01 -9.062610246E+01  1.050413755E+02  1.907348633E-06  0.00000E+00  9.000E+00
       5     1     4     4   511     0  1.921291038E+01  7.317803745E+00 -2.473850188E+01  3.251526029E+01  4.750000000E+00  0.00000E+00  9.000E+00
      -5     1     3     3     0   513  3.455198758E+01  6.855388027E+01 -4.848115280E+02  4.908749887E+02  4.750000000E+00  0.00000E+00  9.000E+00
      21     1     1     2   502   512 -2.900957950E+00 -7.542823335E+00  2.159212807E+02  2.160724629E+02  2.697398305E-06  0.00000E+00  9.000E+00
      21     1     4     4   507   511 -1.307449783E+00 -1.151386565E+00 -1.654401685E+00  2.402532183E+00  4.712160915E-08  0.00000E+00  9.000E+00
      21     1     3     3   513   502  8.083407561E-02 -3.433211058E-01 -3.423342945E+00  3.441464869E+00  4.214684851E-08  0.00000E+00  9.000E+00
#rwgt            1          17   36.439008062293730                1      725130           0       11011           0
<weights>
0.14713E+02
</weights>
</event>
<event>
     15  10001 -1.35503E+01  2.83476E+01 -1.00000E+00  2.36956E-01
      21    -1     0     0   512   501  0.000000000E+00  0.000000000E+00  4.110603472E+02  4.110603472E+02  0.000000000E+00  0.00000E+00  9.000E+00
      21    -1     0     0   501   502  0.000000000E+00  0.000000000E+00 -4.891878966E+02  4.891878966E+02  0.000000000E+00  0.00000E+00  9.000E+00
      -6     2     1     2     0   502  1.236211273E+02 -1.009319071E+02 -1.937205652E+02  5.607201245E+02  5.014079852E+02  0.00000E+00  9.000E+00
       6     2     1     2   507     0 -1.371498462E+02  7.602082042E+01  1.360024068E+01  2.336691817E+02  1.727051663E+02  0.00000E+00  9.000E+00
     -24     2     3     3     0     0  1.409882844E+02 -6.854039505E+01  1.388802182E+02  2.259860212E+02  8.489101648E+01  0.00000E+00  9.000E+00
      24     2     4     4     0     0 -1.083856711E+02  3.945105131E+01  6.276866127E+01  1.537404852E+02  7.995244097E+01  0.00000E+00  9.000E+00
     -11     1     6     6     0     0 -8.909564231E+00 -2.083166457E+01  1.862339153E+01  2.932864292E+01  0.000000000E+00  0.00000E+00  9.000E+00
      12     1     6     6     0     0 -9.947610686E+01  6.028271588E+01  4.414526974E+01  1.244118423E+02  3.814697266E-06  0.00000E+00  9.000E+00
      13     1     5     5     0     0  1.508367754E+02 -5.524999061E+01  1.325881939E+02  2.082880780E+02  0.000000000E+00  0.00000E+00  9.000E+00
     -14     1     5     5     0     0 -9.848490969E+00 -1.329040444E+01  6.292024300E+00  1.769794322E+01  1.460009660E-07  0.00000E+00  9.000E+00
       5     1     4     4   511     0 -9.411580147E+00  1.175468042E+01  5.608168634E+00  1.675602602E+01  4.750000000E+00  0.00000E+00  9.000E+00
      -5     1     3     3     0   514 -1.124429753E+01 -2.432448599E+01 -2.194891895E+02  2.211700288E+02  4.750000000E+00  0.00000E+00  9.000E+00
      21     1     4     4   507   511 -1.935259501E+01  2.481508869E+01 -5.477658922E+01  6.317267041E+01  1.348699152E-06  0.00000E+00  9.000E+00
      21     1     1     2   512   507  1.352871889E+01  2.491108672E+01  1.019927752E+02  1.058589376E+02  1.907348633E-06  0.00000E+00  9.000E+00
      21     1     3     3   514   502 -6.122859507E+00 -8.067026111E+00 -1.131115940E+02  1.135640745E+02  1.348699152E-06  0.00000E+00  9.000E+00
#rwgt            1          17  -92.349225622721477                1      733503           0      100111           0
<weights>
-.78095E+01
</weights>
</event>
<event>
     15  10001  1.35503E+01  3.13457E+00 -1.00000E+00  4.91039E-01
       2    -1     0     0   511     0  0.000000000E+00  0.000000000E+00  1.274981575E+03  1.274981575E+03  0.000000000E+00  0.00000E+00  9.000E+00
      -2    -1     0     0     0   502  0.000000000E+00  0.000000000E+00 -3.572093930E+01  3.572093930E+01  0.000000000E+00  0.00000E+00  9.000E+00
      -6     2     1     2     0   502 -4.259954473E+01  4.483204763E+01  3.541783508E+02  3.979122685E+02  1.704911599E+02  0.00000E+00  9.000E+00
       6     2     1     2   507     0  4.573396331E+01 -4.480121273E+01  5.955785439E+02  6.232695356E+02  1.721986295E+02  0.00000E+00  9.000E+00
     -24     2     3     3     0     0 -6.605281433E+01  7.771699713E+01  3.184484007E+02  3.434646334E+02  7.845804320E+01  0.00000E+00  9.000E+00
      24     2     4     4     0     0  6.435395637E+01  6.755190494E+00  5.098762171E+02  5.199891222E+02  7.891683018E+01  0.00000E+00  9.000E+00
     -11     1     6     6     0     0  6.229190492E+01  1.706162668E+01  2.050362490E+02  2.149680067E+02  0.000000000E+00  0.00000E+00  9.000E+00
      12     1     6     6     0     0  2.062051454E+00 -1.030643618E+01  3.048399682E+02  3.050211154E+02  6.607249480E-06  0.00000E+00  9.000E+00
      13     1     5     5     0     0  9.497992844E+00 -2.759073209E+00  4.868030933E+00  1.102370528E+01  0.000000000E+00  0.00000E+00  9.000E+00
     -14     1     5     5     0     0 -7.555080717E+01  8.047607034E+01  3.135803698E+02  3.324409281E+02  8.529922400E-06  0.00000E+00  9.000E+00
       5     1     4     4   512     0 -5.208154188E+00 -3.072600796E+01  3.676834865E+01  4.843228672E+01  4.750000000E+00  0.00000E+00  9.000E+00
      -5     1     3     3     0   513  2.327398333E+01 -3.130387263E+01  3.523956610E+01  5.278257535E+01  4.750000000E+00  0.00000E+00  9.000E+00
      21     1     4     4   507   512 -1.341183888E+01 -2.083039527E+01  4.893397809E+01  5.484812668E+01  1.507891493E-06  0.00000E+00  9.000E+00
      21     1     1     2   511   507 -3.134418580E+00 -3.083489812E-02  2.895037410E+02  2.895207101E+02  3.814697266E-06  0.00000E+00  9.000E+00
      21     1     3     3   513   502  1.792862722E-01 -1.581076868E+00  4.903839177E-01  1.665059763E+00  7.394490108E-08  0.00000E+00  9.000E+00
#rwgt            1           8   3.7152357035089350                1      739459           0      100111           0
<weights>
0.15119E+02
</weights>
</event>
<event>
     15  10001  1.35503E+01  5.29177E+01 -1.00000E+00  2.05623E-01
      21    -1     0     0   502   511  0.000000000E+00  0.000000000E+00  6.846886391E+02  6.846886391E+02  0.000000000E+00  0.00000E+00  9.000E+00
      21    -1     0     0   507   502  0.000000000E+00  0.000000000E+00 -2.483033338E+02  2.483033338E+02  0.000000000E+00  0.00000E+00  9.000E+00
      -6     2     1     2     0   501 -8.582777475E+01 -4.367712482E+01  9.386686329E+01  2.210249689E+02  1.754051045E+02  0.00000E+00  9.000E+00
       6     2     1     2   507     0  1.364685269E+02  2.832158593E+01 -1.163478940E+02  2.500594454E+02  1.719509312E+02  0.00000E+00  9.000E+00
     -24     2     3     3     0     0 -1.022118079E+02 -2.685673918E+01  1.186980999E+02  1.783147951E+02  8.086030625E+01  0.00000E+00  9.000E+00
      24     2     4     4     0     0  4.878439956E+01 -4.415292783E+00  7.665303077E+00  9.433670302E+01  8.025736236E+01  0.00000E+00  9.000E+00
     -11     1     6     6     0     0  1.870234682E+01  1.867112423E+01 -3.062256352E+01  4.044910448E+01  0.000000000E+00  0.00000E+00  9.000E+00
      12     1     6     6     0     0  3.008205274E+01 -2.308641701E+01  3.828786660E+01  5.388759854E+01  1.507891493E-06  0.00000E+00  9.000E+00
      13     1     5     5     0     0 -2.751360834E+01  2.501516536E+01  1.424785041E+01  3.982158188E+01  0.000000000E+00  0.00000E+00  9.000E+00
     -14     1     5     5     0     0 -7.469819952E+01 -5.187190453E+01  1.044502495E+02  1.384932132E+02  2.697398305E-06  0.00000E+00  9.000E+00
       5     1     4     4   514     0  8.035312902E+01  3.018977544E+01 -1.174972241E+02  1.455891756E+02  4.750000000E+00  0.00000E+00  9.000E+00
      -5     1     3     3     0   512  2.219378367E+01 -1.760291951E+01 -2.211105084E+01  3.624759134E+01  4.750000000E+00  0.00000E+00  9.000E+00
      21     1     1     2   501   511 -5.064075215E+01  1.535553889E+01  4.588663361E+02  4.619075586E+02  7.629394531E-06  0.00000E+00  9.000E+00
      21     1     3     3   512   501 -5.809750554E+00  7.825338650E-01 -2.720185780E+00  6.462582411E+00  9.884312124E-08  0.00000E+00  9.000E+00
      21     1     4     4   507   514  7.330998318E+00  2.547103266E+00 -6.515973000E+00  1.013356677E+01  1.460009660E-07  0.00000E+00  9.000E+00
#rwgt            1          17   17.986892339873304                1      741940           0       11110           0
<weights>
0.15117E+02
</weights>
</event>
<event>
     15  10001 -1.35503E+01  2.95236E+01 -1.00000E+00  2.42577E-01
      21    -1     0     0   502   501  0.000000000E+00  0.000000000E+00  5.014327309E+01  5.014327309E+01  0.000000000E+00  0.00000E+00  9.000E+00
      21    -1     0     0   507   512  0.000000000E+00  0.000000000E+00 -1.361358428E+03  1.361358428E+03  0.000000000E+00  0.00000E+00  9.000E+00
      -6     2     1     2     0   501 -2.045277771E+01  5.474521488E+01 -1.614693223E+02  2.432044447E+02  1.722228359E+02  0.00000E+00  9.000E+00
       6     2     1     2   507     0  1.491743315E+00 -3.211513317E+01 -1.043309182E+03  1.057841827E+03  1.717605117E+02  0.00000E+00  9.000E+00
     -24     2     3     3     0     0  3.800171081E+01 -9.117637997E+00 -9.850626515E+01  1.333335465E+02  8.091408400E+01  0.00000E+00  9.000E+00
      24     2     4     4     0     0  1.543514814E+01 -3.098415564E+01 -2.645109120E+02  2.787849585E+02  8.097387714E+01  0.00000E+00  9.000E+00
     -11     1     6     6     0     0 -2.430507253E+01 -1.567981730E+01 -3.522760287E+01  4.558044784E+01  0.000000000E+00  0.00000E+00  9.000E+00
      12     1     6     6     0     0  3.974022067E+01 -1.530433833E+01 -2.292833092E+02  2.332045106E+02  2.697398305E-06  0.00000E+00  9.000E+00
      13     1     5     5     0     0 -1.703958502E+01  1.722116404E+01 -1.088539014E+01  2.655951180E+01  0.000000000E+00  0.00000E+00  9.000E+00
     -14     1     5     5     0     0  5.504129583E+01 -2.633880203E+01 -8.762087500E+01  1.067740347E+02  1.651812370E-06  0.00000E+00  9.000E+00
       5     1     4     4   511     0 -1.384244405E+01  3.736113004E+00 -5.537537712E+02  5.539597218E+02  4.750000000E+00  0.00000E+00  9.000E+00
      -5     1     3     3     0   513 -5.809458824E+01  6.589538890E+01 -6.147114553E+01  1.073240313E+02  4.750000000E+00  0.00000E+00  9.000E+00
      21     1     1     2   502   512  1.896103440E+01 -2.263008172E+01 -1.064366505E+02  1.104554299E+02  2.697398305E-06  0.00000E+00  9.000E+00
      21     1     4     4   507   511 -1.009607730E-01 -4.867090534E+00 -2.250444992E+02  2.250971466E+02  2.697398305E-06  0.00000E+00  9.000E+00
      21     1     3     3   513   501 -3.599002839E-01 -2.032536018E+00 -1.491911638E+00  2.546866941E+00  6.664001875E-08  0.00000E+00  9.000E+00
#rwgt            1          17  -19.132497708585603                1      749493           0       11011           0
<weights>
-.18077E+02
</weights>
</event>
<event>
     15  10001  1.35503E+01  3.75517E+01 -1.00000E+00  2.14082E-01
      21    -1     0     0   511   501  0.000000000E+00  0.000000000E+00  4.544213244E+02  4.544213244E+02  0.000000000E+00  0.00000E+00  9.000E+00
      21    -1     0     0   501   502  0.000000000E+00  0.000000000E+00 -1.808622815E+02  1.808622815E+02  0.000000000E+00  0.00000E+00  9.000E+00
      -6     2     1     2     0   502  1.164475048E+02  1.767099483E+02  1.507057511E+02  3.146119835E+02  1.774318166E+02  0.00000E+00  9.000E+00
       6     2     1     2   507     0 -7.890535228E+01 -1.758651024E+02  1.077782773E+02  2.802070325E+02  1.724680700E+02  0.00000E+00  9.000E+00
     -24     2     3     3     0     0  4.227117848E+01  1.779231233E+02  1.289119689E+02  2.364558618E+02  7.648260263E+01  0.00000E+00  9.000E+00
      24     2     4     4     0     0  8.242200686E+00 -8.075802546E+01  6.244989846E+00  1.157278715E+02  8.224443930E+01  0.00000E+00  9.000E+00
     -11     1     6     6     0     0  7.418566693E+00 -7.736281067E+01 -2.701938154E+01  8.228053588E+01  0.000000000E+00  0.00000E+00  9.000E+00
      12     1     6     6     0     0  8.236339931E-01 -3.395214791E+00  3.326437138E+01  3.344733562E+01  4.768371582E-07  0.00000E+00  9.000E+00
      13     1     5     5     0     0 -2.048801927E+01  6.159949699E+01  3.083378091E+01  7.186778839E+01  0.000000000E+00  0.00000E+00  9.000E+00
     -14     1     5     5     0     0  6.275919775E+01  1.163236263E+02  9.807818795E+01  1.645880734E+02  5.722045898E-06  0.00000E+00  9.000E+00
       5     1     4     4   514     0 -8.572968455E+01 -9.456709265E+01  1.011048101E+02  1.629026057E+02  4.750000000E+00  0.00000E+00  9.000E+00
      -5     1     3     3     0   512  5.123850818E+01 -1.683643895E+00  1.967053118E+01  5.511543953E+01  4.750000000E+00  0.00000E+00  9.000E+00
      21     1     1     2   511   507 -3.754215250E+01 -8.448459145E-01  1.507501448E+01  4.046458996E+01  1.066240300E-06  0.00000E+00  9.000E+00
      21     1     3     3   512   502  2.293781812E+01  4.704688452E-01  2.123251075E+00  2.304068219E+01  3.068336886E-07  0.00000E+00  9.000E+00
      21     1     4     4   507   514 -1.417868417E+00 -5.399842491E-01  4.284773916E-01  1.576555331E+00  5.268356064E-09  0.00000E+00  9.000E+00
#rwgt            1          17   10.316869422993303                1      755764           0       11110           0
<weights>
0.14144E+02
</weights>
</event>
<event>
     13  10001  1.35503E+01  1.68310E+02 -1.00000E+00  1.14445E-01
      21    -1     0     0   502   501  0.000000000E+00  0.000000000E+00  1.440961947E+02  1.440961947E+02  0.000000000E+00  0.00000E+00  9.000E+00
      21    -1     0     0   507   512  0.000000000E+00  0.000000000E+00 -9.074106031E+02  9.074106031E+02  0.000000000E+00  0.00000E+00  9.000E+00
      -6     2     1     2     0   501 -1.839061285E+02 -5.441623679E+01 -2.796967515E+02  3.867589682E+02  1.859291149E+02  0.00000E+00  9.000E+00
       6     2     1     2   507     0  1.695456621E+02 -1.132799167E+02 -1.932171043E+02  3.290981553E+02  1.714487544E+02  0.00000E+00  9.000E+00
     -24     2     3     3     0     0 -1.819169454E+02 -6.223568855E+01 -1.490946418E+02  2.558216770E+02  7.904721538E+01  0.00000E+00  9.000E+00
      24     2     4     4     0     0  1.864118446E+02 -1.296683442E+02 -1.663603730E+02  2.930857244E+02  8.161012721E+01  0.00000E+00  9.000E+00
     -11     1     6     6     0     0  9.762832258E+01 -1.117796796E+02 -1.225936042E+02  1.924972154E+02  0.000000000E+00  0.00000E+00  9.000E+00
      12     1     6     6     0     0  8.878352200E+01 -1.788866461E+01 -4.376676883E+01  1.005885091E+02  3.053247565E-06  0.00000E+00  9.000E+00
      13     1     5     5     0     0 -3.298734434E+01 -3.663290404E+01 -6.897919602E+01  8.478363066E+01  0.000000000E+00  0.00000E+00  9.000E+00
     -14     1     5     5     0     0 -1.489296010E+02 -2.560278451E+01 -8.011544583E+01  1.710380464E+02  4.370284743E-06  0.00000E+00  9.000E+00
       5     1     4     4   507     0 -1.686618248E+01  1.638842746E+01 -2.685673124E+01  3.601243090E+01  4.750000000E+00  0.00000E+00  9.000E+00
      -5     1     3     3     0   501 -1.989183097E+00  7.819451764E+00 -1.306021097E+02  1.309372912E+02  4.750000000E+00  0.00000E+00  9.000E+00
      21     1     1     2   502   512  1.436046638E+01  1.676961535E+02 -2.904005526E+02  3.356496743E+02  5.394796609E-06  0.00000E+00  9.000E+00
#rwgt            2         113   5.1010475561225590                1      766652           0           1           0
<weights>
0.13550E+02
</weights>
</event>
<event>
     15  10001  1.35503E+01  4.09078E+01 -1.00000E+00  2.33609E-01
      21    -1     0     0   507   511  0.000000000E+00  0.000000000E+00  1.749344121E+03  1.749344121E+03  0.000000000E+00  0.00000E+00  9.000E+00
      21    -1     0     0   501   502  0.000000000E+00  0.000000000E+00 -1.354184319E+02  1.354184319E+02  0.000000000E+00  0.00000E+00  9.000E+00
      -6     2     1     2     0   502 -1.098843622E+00 -1.594852605E+01 -2.368375231E+01  1.704819633E+02  1.680702733E+02  0.00000E+00  9.000E+00
       6     2     1     2   507     0  3.355389275E+01 -8.953691926E+00  1.592070483E+02  2.353123389E+02  1.697615395E+02  0.00000E+00  9.000E+00
     -24     2     3     3     0     0 -1.924434931E+01  5.176652546E+01  9.556424571E-01  9.548907652E+01  7.789179895E+01  0.00000E+00  9.000E+00
      24     2     4     4     0     0  4.862373904E+01 -6.470327121E+01  9.412898089E+01  1.474098765E+02  7.948978136E+01  0.00000E+00  9.000E+00
     -11     1     6     6     0     0  1.697994931E+01 -4.128510155E+01 -7.938544160E-01  4.464760345E+01  0.000000000E+00  0.00000E+00  9.000E+00
      12     1     6     6     0     0  3.164378973E+01 -2.341816966E+01  9.492283531E+01  1.027622730E+02  1.907348633E-06  0.00000E+00  9.000E+00
      13     1     5     5     0     0  2.244394493E+01 -7.980829153E-01 -1.438271413E+01  2.666889698E+01  0.000000000E+00  0.00000E+00  9.000E+00
     -14     1     5     5     0     0 -4.168829423E+01  5.256460838E+01  1.533835659E+01  6.882017954E+01  1.608221240E-06  0.00000E+00  9.000E+00
       5     1     4     4   512     0 -9.287864370E+00  4.925233223E+01  5.419693639E+01  7.397247508E+01  4.750000000E+00  0.00000E+00  9.000E+00
      -5     1     3     3     0   513  9.967930681E+00 -5.126619509E+01 -1.749712843E+01  5.528376258E+01  4.750000000E+00  0.00000E+00  9.000E+00
      21     1     1     2   501   511 -3.245504913E+01  2.490221797E+01  1.478402393E+03  1.478968250E+03  3.051757812E-05  0.00000E+00  9.000E+00
      21     1     3     3   513   502  8.177575004E+00 -1.644885642E+01 -7.142266335E+00  1.970912425E+01  3.039252468E-07  0.00000E+00  9.000E+00
      21     1     4     4   507   512 -5.781981923E+00  6.497247056E+00  1.088113105E+01  1.392998734E+01  3.576278687E-07  0.00000E+00  9.000E+00
#rwgt            1          17   31.127252786980417                1      772083           0       11110           0
<weights>
0.14136E+02
</weights>
</event>
<event>
     15  10001 -1.35503E+01  2.16985E+01 -1.00000E+00  1.72696E-01
      21    -1     0     0   507   512  0.000000000E+00  0.000000000E+00  4.589928167E+02  4.589928167E+02  0.000000000E+00  0.00000E+00  9.000E+00
      21    -1     0     0   501   502  0.000000000E+00  0.000000000E+00 -1.991575547E+02  1.991575547E+02  0.000000000E+00  0.00000E+00  9.000E+00
      -6     2     1     2     0   502  2.142558748E+01 -1.337701884E+02  1.971475005E+02  2.950149805E+02  1.726649433E+02  0.00000E+00  9.000E+00
       6     2     1     2   507     0 -3.893084923E+01  1.209487650E+02 -9.240683092E+01  2.065302962E+02  1.340579206E+02  0.00000E+00  9.000E+00
     -24     2     3     3     0     0 -2.824202308E+01 -2.104871862E+01  1.306408762E+02  1.503930411E+02  6.565339188E+01  0.00000E+00  9.000E+00
      24     2     4     4     0     0 -2.399218571E+01  1.054720080E+02 -8.847084525E+01  1.596834479E+02  7.727705767E+01  0.00000E+00  9.000E+00
     -11     1     6     6     0     0 -1.392368691E+01  5.926462915E+01 -9.408144972E+01  1.120601825E+02  0.000000000E+00  0.00000E+00  9.000E+00
      12     1     6     6     0     0 -1.006849880E+01  4.620737881E+01  5.610604473E+00  4.762326540E+01  1.987616062E-06  0.00000E+00  9.000E+00
      13     1     5     5     0     0 -5.429147087E+00 -2.588924786E+01  1.230601814E+02  1.258711128E+02  0.000000000E+00  0.00000E+00  9.000E+00
     -14     1     5     5     0     0 -2.281287599E+01  4.840529240E+00  7.580694766E+00  2.452192830E+01  4.214684851E-07  0.00000E+00  9.000E+00
       5     1     4     4   511     0 -1.227800187E+01 -2.678347204E+00  1.523330104E+01  2.031105203E+01  4.750000000E+00  0.00000E+00  9.000E+00
      -5     1     3     3     0   513  5.246224117E+01 -8.601227096E+01  4.612021297E+01  1.109055186E+02  4.750000000E+00  0.00000E+00  9.000E+00
      21     1     1     2   501   512  1.750526175E+01  1.282142335E+01  1.550945924E+02  1.566050947E+02  4.264961200E-06  0.00000E+00  9.000E+00
      21     1     4     4   507   511 -2.660661651E+00  1.815510427E+01 -1.916928671E+01  2.653579629E+01  8.596304120E-07  0.00000E+00  9.000E+00
      21     1     3     3   513   502 -2.794630609E+00 -2.670919880E+01  2.038641140E+01  3.371642079E+01  6.307962682E-07  0.00000E+00  9.000E+00
#rwgt            1          17  -161.21843924479367                1      777797           0       11011           0
<weights>
-.11845E+02
</weights>
</event>
<event>
     15  10001 -1.35503E+01  6.17474E+01 -1.00000E+00  4.78924E-01
       2    -1     0     0   511     0  0.000000000E+00  0.000000000E+00  4.217051726E+02  4.217051726E+02  0.000000000E+00  0.00000E+00  9.000E+00
      -2    -1     0     0     0   502  0.000000000E+00  0.000000000E+00 -2.414414181E+02  2.414414181E+02  0.000000000E+00  0.00000E+00  9.000E+00
      -6     2     1     2     0   502  1.734397011E+02  2.823097194E+00 -8.385905230E+01  2.583133120E+02  1.720584979E+02  0.00000E+00  9.000E+00
       6     2     1     2   507     0 -1.160750130E+02 -2.567109542E+01  1.101493414E+02  2.389400403E+02  1.755763414E+02  0.00000E+00  9.000E+00
     -24     2     3     3     0     0  8.956759598E+01  4.462269620E-01  1.451221645E+01  1.288606772E+02  9.149817671E+01  0.00000E+00  9.000E+00
      24     2     4     4     0     0 -1.349218905E+02  1.884303251E+01  8.456897674E+01  1.796776602E+02  8.107510915E+01  0.00000E+00  9.000E+00
     -11     1     6     6     0     0 -3.038723009E+01 -3.037303301E+01  2.147581675E+01  4.803244312E+01  0.000000000E+00  0.00000E+00  9.000E+00
      12     1     6     6     0     0 -1.045346604E+02  4.921606552E+01  6.309315999E+01  1.316452171E+02  2.697398305E-06  0.00000E+00  9.000E+00
      13     1     5     5     0     0  5.957741472E+01 -3.820256669E+01 -1.413345837E+01  7.217104054E+01  0.000000000E+00  0.00000E+00  9.000E+00
     -14     1     5     5     0     0  2.999018126E+01  3.864879365E+01  2.864567482E+01  5.668963669E+01  2.158972058E-06  0.00000E+00  9.000E+00
       5     1     4     4   512     0  2.286592183E+01 -4.055043298E+01  1.877528468E+01  5.042084698E+01  4.750000000E+00  0.00000E+00  9.000E+00
      -5     1     3     3     0   514  7.479106876E+01  2.757201402E+00 -8.928953467E+01  1.166039863E+02  4.750000000E+00  0.00000E+00  9.000E+00
      21     1     1     2   511   507 -5.736468809E+01  2.284799823E+01  1.539734655E+02  1.658932384E+02  1.907348633E-06  0.00000E+00  9.000E+00
      21     1     4     4   507   512 -4.019044330E+00 -3.963694949E+00  6.805079943E+00  8.841533125E+00  1.685873940E-07  0.00000E+00  9.000E+00
      21     1     3     3   514   502  9.081036397E+00 -3.803311699E-01 -9.081734078E+00  1.284864848E+01  1.192092896E-07  0.00000E+00  9.000E+00
#rwgt            1           8  -3.4981811206554543                1      779756           0       11011           0
<weights>
-.13397E+02
</weights>
</event>
<event>
     14  10001 -1.35503E+01  2.30389E+01 -1.00000E+00  7.49614E-01
      21    -1     0     0   507   512  0.000000000E+00  0.000000000E+00  1.066479264E+03  1.066479264E+03  0.000000000E+00  0.00000E+00  9.000E+00
      21    -1     0     0   501   502  0.000000000E+00  0.000000000E+00 -6.255698038E+01  6.255698038E+01  0.000000000E+00  0.00000E+00  9.000E+00
      -6     2     1     2     0   502  8.460972566E+01 -9.589408679E+00  3.075005860E+02  3.626129108E+02  1.722810211E+02  0.00000E+00  9.000E+00
       6     2     1     2   507     0 -9.615160935E+01 -1.034984791E+01  2.454857658E+02  3.148992439E+02  1.718895612E+02  0.00000E+00  9.000E+00
     -24     2     3     3     0     0  7.470432895E+01  5.215985841E+01  1.510617056E+02  1.940698163E+02  8.088304596E+01  0.00000E+00  9.000E+00
      24     2     4     4     0     0 -8.079969599E+01 -6.463018412E+01  1.233428395E+02  1.801098629E+02  8.074933501E+01  0.00000E+00  9.000E+00
     -11     1     6     6     0     0 -9.383326596E+01 -6.560941344E+01  9.454888451E+01  1.484882773E+02  0.000000000E+00  0.00000E+00  9.000E+00
      12     1     6     6     0     0  1.303356996E+01  9.792293195E-01  2.879395496E+01  3.162158563E+01  8.920806376E-07  0.00000E+00  9.000E+00
      13     1     5     5     0     0  1.608753407E+01 -6.374085950E+00 -4.453226294E+00  1.786809862E+01  0.000000000E+00  0.00000E+00  9.000E+00
     -14     1     5     5     0     0  5.861679489E+01  5.853394436E+01  1.555149319E+02  1.762017177E+02  2.697398305E-06  0.00000E+00  9.000E+00
       5     1     4     4   511     0 -1.465914551E+01  5.290080010E+01  1.155010211E+02  1.279704402E+02  4.750000000E+00  0.00000E+00  9.000E+00
      -5     1     3     3     0   502  9.905396710E+00 -6.174926709E+01  1.564388804E+02  1.685430944E+02  4.750000000E+00  0.00000E+00  9.000E+00
      21     1     1     2   501   512  1.154188369E+01  1.993925659E+01  4.509359323E+02  4.515240902E+02  5.394796609E-06  0.00000E+00  9.000E+00
      21     1     4     4   507   511 -6.927678434E-01  1.379536099E+00  6.641905239E+00  6.818940705E+00  8.429369702E-08  0.00000E+00  9.000E+00
#rwgt            1          17  -6.6988319459786823                1      782519           0         110           0
<weights>
-.76348E+01
</weights>
</event>
<event>
     15  10001 -1.35503E+01  1.87226E+01 -1.00000E+00  3.08063E-01
      21    -1     0     0   507   501  0.000000000E+00  0.000000000E+00  1.752825270E+02  1.752825270E+02  0.000000000E+00  0.00000E+00  9.000E+00
      21    -1     0     0   511   502  0.000000000E+00  0.000000000E+00 -5.131994767E+02  5.131994767E+02  0.000000000E+00  0.00000E+00  9.000E+00
      -6     2     1     2     0   502 -3.779255784E+01 -2.086199458E+01 -3.751484636E+02  4.147688772E+02  1.715615094E+02  0.00000E+00  9.000E+00
       6     2     1     2   507     0  2.402467735E+01  3.354986364E+01 -7.287887901E+01  1.620223249E+02  1.386979606E+02  0.00000E+00  9.000E+00
     -24     2     3     3     0     0 -6.637256608E+01  2.859546444E+01 -2.978322691E+02  3.170447703E+02  8.118071041E+01  0.00000E+00  9.000E+00
      24     2     4     4     0     0  5.494955803E+01  3.087857730E+01 -7.656781164E+01  1.268992470E+02  7.916974577E+01  0.00000E+00  9.000E+00
     -11     1     6     6     0     0  7.150030420E+01  9.161933901E+00 -4.421678595E+01  8.456570637E+01  0.000000000E+00  0.00000E+00  9.000E+00
      12     1     6     6     0     0 -1.655074617E+01  2.171664340E+01 -3.235102569E+01  4.233354063E+01  4.768371582E-07  0.00000E+00  9.000E+00
      13     1     5     5     0     0 -5.776488931E+01 -1.839666716E+01 -1.779963340E+02  1.880370036E+02  0.000000000E+00  0.00000E+00  9.000E+00
     -14     1     5     5     0     0 -8.607676773E+00  4.699213160E+01 -1.198359351E+02  1.290077667E+02  1.907348633E-06  0.00000E+00  9.000E+00
       5     1     4     4   512     0 -2.626334791E+01  1.001441829E+00 -2.917372119E+00  2.686707817E+01  4.750000000E+00  0.00000E+00  9.000E+00
      -5     1     3     3     0   513  2.899954630E+01 -4.876561295E+01 -6.939814367E+01  8.976482350E+01  4.750000000E+00  0.00000E+00  9.000E+00
      21     1     1     2   511   501  1.376788049E+01 -1.268786906E+01  1.101103929E+02  1.116908017E+02  2.336015456E-06  0.00000E+00  9.000E+00
      21     1     4     4   507   512 -4.661532762E+00  1.669844513E+00  6.606304755E+00  8.255999691E+00  2.230201594E-07  0.00000E+00  9.000E+00
      21     1     3     3   513   502 -4.195380675E-01 -6.918460703E-01 -7.918050830E+00  7.959283392E+00  0.000000000E+00  0.00000E+00  9.000E+00
#rwgt            1          17  -34.035019394917619                1      793599           0       11011           0
<weights>
-.11328E+02
</weights>
</event>
<event>
     15  10001  1.35503E+01  1.97413E+02 -1.00000E+00  4.04941E-01
      21    -1     0     0   507   501  0.000000000E+00  0.000000000E+00  2.297664063E+02  2.297664063E+02  0.000000000E+00  0.00000E+00  9.000E+00
       1    -1     0     0   501     0  0.000000000E+00  0.000000000E+00 -6.243142892E+02  6.243142892E+02  0.000000000E+00  0.00000E+00  9.000E+00
      -6     2     1     2     0   502 -1.970434245E+01  1.445687263E+00  4.973664609E+01  1.798924279E+02  1.717474906E+02  0.00000E+00  9.000E+00
       6     2     1     2   507     0  2.187856782E+00 -1.980801774E+02 -1.029707644E+02  2.798951839E+02  1.688128913E+02  0.00000E+00  9.000E+00
     -24     2     3     3     0     0 -2.916142822E+01 -6.027575648E+01  8.676662839E+00  1.048145072E+02  8.017007374E+01  0.00000E+00  9.000E+00
      24     2     4     4     0     0  2.347373809E+01 -1.239704746E+02  2.048058090E+00  1.494033064E+02  7.998411400E+01  0.00000E+00  9.000E+00
     -11     1     6     6     0     0 -2.142851934E+01 -1.918055799E+01 -1.760086753E+01  3.371744035E+01  0.000000000E+00  0.00000E+00  9.000E+00
      12     1     6     6     0     0  4.490225743E+01 -1.047899166E+02  1.964892562E+01  1.156858661E+02  2.419684306E-06  0.00000E+00  9.000E+00
      13     1     5     5     0     0 -6.497058865E+00 -3.760120713E+01  4.324162815E+01  5.767062472E+01  0.000000000E+00  0.00000E+00  9.000E+00
     -14     1     5     5     0     0 -2.266436936E+01 -2.267454935E+01 -3.456496531E+01  4.714388246E+01  1.430511475E-06  0.00000E+00  9.000E+00
       5     1     4     4   512     0 -1.985793358E+01 -7.202131593E+01 -1.024580018E+02  1.268921279E+02  4.750000000E+00  0.00000E+00  9.000E+00
      -5     1     3     3     0   511  7.673632717E+00  5.710338405E+01  3.666870712E+01  6.846048269E+01  4.750000000E+00  0.00000E+00  9.000E+00
       1     1     1     2   502     0  1.751648567E+01  1.966344901E+02 -3.413137646E+02  3.942930837E+02  0.000000000E+00  0.00000E+00  9.000E+00
      21     1     3     3   511   502  1.783453053E+00  4.618059699E+00  4.391276129E+00  6.617438040E+00  1.460009660E-07  0.00000E+00  9.000E+00
      21     1     4     4   507   512 -1.427947731E+00 -2.088386866E+00 -2.560820688E+00  3.599749577E+00  4.214684851E-08  0.00000E+00  9.000E+00
#rwgt            1          17   12.938842951790347                1      798000           0       11110           0
<weights>
0.12398E+02
</weights>
</event>
<event>
     15  10001 -1.35503E+01  1.02151E+01 -1.00000E+00  2.30005E-01
      -2    -1     0     0     0   511  0.000000000E+00  0.000000000E+00  4.459205949E+01  4.459205949E+01  0.000000000E+00  0.00000E+00  9.000E+00
       2    -1     0     0   501     0  0.000000000E+00  0.000000000E+00 -1.229986380E+03  1.229986380E+03  0.000000000E+00  0.00000E+00  9.000E+00
      -6     2     1     2     0   507 -8.320366595E+00 -1.442890982E+02 -7.245749799E+02  7.588013386E+02  1.728641014E+02  0.00000E+00  9.000E+00
       6     2     1     2   507     0  6.539410064E+00  1.342304293E+02 -4.198865339E+02  4.735889119E+02  1.729774092E+02  0.00000E+00  9.000E+00
     -24     2     3     3     0     0 -1.840987124E+01 -1.647183422E+02 -5.186528146E+02  5.503510672E+02  8.009057013E+01  0.00000E+00  9.000E+00
      24     2     4     4     0     0 -5.491941251E+01  5.000497983E+01 -2.642799314E+02  2.859856270E+02  8.017017439E+01  0.00000E+00  9.000E+00
     -11     1     6     6     0     0 -2.802802169E+01  6.872755278E+01 -1.542204648E+02  1.711519742E+02  0.000000000E+00  0.00000E+00  9.000E+00
      12     1     6     6     0     0 -2.689139082E+01 -1.872257295E+01 -1.100594666E+02  1.148336528E+02  0.000000000E+00  0.00000E+00  9.000E+00
      13     1     5     5     0     0  1.054781468E+01 -4.200921008E+01 -2.482391269E+02  2.519894725E+02  0.000000000E+00  0.00000E+00  9.000E+00
     -14     1     5     5     0     0 -2.895768592E+01 -1.227091321E+02 -2.704136877E+02  2.983615947E+02  3.814697266E-06  0.00000E+00  9.000E+00
       5     1     4     4   513     0  4.887283038E+01  7.168308039E+01 -1.254604325E+02  1.526102886E+02  4.750000000E+00  0.00000E+00  9.000E+00
      -5     1     3     3     0   512  6.985475368E+00  2.509141764E+01 -1.794098635E+02  1.813527991E+02  4.750000000E+00  0.00000E+00  9.000E+00
      21     1     1     2   501   511  1.780956531E+00  1.005866887E+01 -4.093280622E+01  4.218818852E+01  1.168007728E-06  0.00000E+00  9.000E+00
      21     1     3     3   512   507  3.104029274E+00 -4.662173628E+00 -2.651230176E+01  2.709747230E+01  3.371747881E-07  0.00000E+00  9.000E+00
      21     1     4     4   507   513  1.258599219E+01  1.254236909E+01 -3.014617004E+01  3.499299630E+01  6.743495762E-07  0.00000E+00  9.000E+00
#rwgt            1           6  -3.0064447821568900                1      813971           0       11110           0
<weights>
-.13159E+02
</weights>
</event>
<event>
     15  10001 -1.35503E+01  1.95261E+01 -1.00000E+00  2.70001E-01
      21    -1     0     0   512   501  0.000000000E+00  0.000000000E+00  6.019882489E+02  6.019882489E+02  0.000000000E+00  0.00000E+00  9.000E+00
      21    -1     0     0   501   502  0.000000000E+00  0.000000000E+00 -2.113181090E+02  2.113181090E+02  0.000000000E+00  0.00000E+00  9.000E+00
      -6     2     1     2     0   502  1.144716080E+02  5.809250254E+01 -1.098919415E+02  2.417066638E+02  1.728218290E+02  0.00000E+00  9.000E+00
       6     2     1     2   507     0 -9.597492188E+01 -5.183618904E+01  5.104981767E+02  5.496909094E+02  1.722020075E+02  0.00000E+00  9.000E+00
     -24     2     3     3     0     0  1.483890056E+02  4.960936452E+01 -1.066528938E+02  2.051535619E+02  7.894781936E+01  0.00000E+00  9.000E+00
      24     2     4     4     0     0 -5.349260649E+01 -9.159001540E+01  3.849798354E+02  4.075459485E+02  8.144959542E+01  0.00000E+00  9.000E+00
     -11     1     6     6     0     0 -2.845609568E+01 -6.940374828E+01  3.543061736E+02  3.621594874E+02  0.000000000E+00  0.00000E+00  9.000E+00
      12     1     6     6     0     0 -2.503651081E+01 -2.218626712E+01  3.067366180E+01  4.538646109E+01  5.840038640E-07  0.00000E+00  9.000E+00
      13     1     5     5     0     0  5.776977071E+01  4.994075946E+01 -8.022514339E+01  1.107587446E+02  0.000000000E+00  0.00000E+00  9.000E+00
     -14     1     5     5     0     0  9.061923487E+01 -3.313949417E-01 -2.642775042E+01  9.439481736E+01  1.685873940E-06  0.00000E+00  9.000E+00
       5     1     4     4   511     0 -2.937385601E+01  4.101556857E+01  1.135771459E+02  1.243681263E+02  4.750000000E+00  0.00000E+00  9.000E+00
      -5     1     3     3     0   514 -2.848259053E+01  7.482604278E+00  5.806699554E-01  2.983533153E+01  4.750000000E+00  0.00000E+00  9.000E+00
      21     1     1     2   512   507 -1.849668616E+01 -6.256313501E+00 -9.936095244E+00  2.190878468E+01  3.371747881E-07  0.00000E+00  9.000E+00
      21     1     4     4   507   511 -1.310845939E+01 -1.261742214E+00  1.194119537E+01  1.777683458E+01  1.685873940E-07  0.00000E+00  9.000E+00
      21     1     3     3   514   502 -5.434807006E+00  1.000533745E+00 -3.819717696E+00  6.717770333E+00  1.264405455E-07  0.00000E+00  9.000E+00
#rwgt            1          17  -8.6490236475254036                1      814734           0       11011           0
<weights>
-.11675E+02
</weights>
</event>
<event>
     15  10001  1.35503E+01  1.24267E+01 -1.00000E+00  2.19043E-01
      21    -1     0     0   502   511  0.000000000E+00  0.000000000E+00  2.904820010E+02  2.904820010E+02  0.000000000E+00  0.00000E+00  9.000E+00
      21    -1     0     0   507   502  0.000000000E+00  0.000000000E+00 -7.513715485E+02  7.513715485E+02  0.000000000E+00  0.00000E+00  9.000E+00
      -6     2     1     2     0   501 -7.386757914E+01 -7.729611980E+01 -3.599761199E+01  2.053908928E+02  1.716347325E+02  0.00000E+00  9.000E+00
       6     2     1     2   507     0  6.217377719E+01  8.150057425E+01 -6.144564639E+02  6.464912565E+02  1.728764775E+02  0.00000E+00  9.000E+00
     -24     2     3     3     0     0  7.513366819E+00 -7.755047664E+01  8.883860394E+00  1.121204863E+02  8.013459532E+01  0.00000E+00  9.000E+00
      24     2     4     4     0     0  8.636073711E+01  2.991331088E+01 -5.322131922E+02  5.462668562E+02  8.248401758E+01  0.00000E+00  9.000E+00
     -11     1     6     6     0     0  2.592783403E+01  4.747718206E+01 -3.325229828E+02  3.368944486E+02  0.000000000E+00  0.00000E+00  9.000E+00
      12     1     6     6     0     0  6.043290308E+01 -1.756387119E+01 -1.996902094E+02  2.093724077E+02  0.000000000E+00  0.00000E+00  9.000E+00
      13     1     5     5     0     0  2.869253151E+00  1.557482711E+01 -7.379331951E+00  1.747175988E+01  0.000000000E+00  0.00000E+00  9.000E+00
     -14     1     5     5     0     0  4.644113669E+00 -9.312530375E+01  1.626319234E+01  9.464872643E+01  4.529953003E-06  0.00000E+00  9.000E+00
       5     1     4     4   513     0 -2.044320678E+01  4.590217040E+01 -7.245032740E+01  8.829805428E+01  4.750000000E+00  0.00000E+00  9.000E+00
      -5     1     3     3     0   512 -3.914741094E+01 -1.762446000E+00 -2.225449814E+01  4.531502165E+01  4.750000000E+00  0.00000E+00  9.000E+00
      21     1     1     2   501   511  1.169380195E+01 -4.204454444E+00  1.895645284E+02  1.899714001E+02  0.000000000E+00  0.00000E+00  9.000E+00
      21     1     3     3   512   501 -4.223353502E+01  2.016802835E+00 -2.262697424E+01  4.795538487E+01  1.039242493E-06  0.00000E+00  9.000E+00
      21     1     4     4   507   513 -3.743753138E+00  5.685092975E+00 -9.792944311E+00  1.192634596E+01  1.685873940E-07  0.00000E+00  9.000E+00
#rwgt            1          17   30.401389911269103                1      820155           0       11110           0
<weights>
0.24515E+02
</weights>
</event>
<event>
     15  10001  1.35503E+01  5.15679E+02 -1.00000E+00  2.06037E-01
      21    -1     0     0   512   501  0.000000000E+00  0.000000000E+00  3.341819010E+02  3.341819010E+02  0.000000000E+00  0.00000E+00  9.000E+00
      21    -1     0     0   501   502  0.000000000E+00  0.000000000E+00 -1.470484688E+03  1.470484688E+03  0.000000000E+00  0.00000E+00  9.000E+00
      -6     2     1     2     0   502  1.891801780E+01 -4.567848371E+02 -7.938101426E+02  9.319170174E+02  1.712439953E+02  0.00000E+00  9.000E+00
       6     2     1     2   507     0 -1.108309008E+02 -5.063715919E+01  5.832629377E+01  2.196179759E+02  1.731545215E+02  0.00000E+00  9.000E+00
     -24     2     3     3     0     0  5.393691616E+01 -1.948365180E+02 -2.815747514E+02  3.550095139E+02  7.666129799E+01  0.00000E+00  9.000E+00
      24     2     4     4     0     0 -1.204925681E+02 -8.579911147E+01  3.142827135E+01  1.713918239E+02  8.066891939E+01  0.00000E+00  9.000E+00
     -11     1     6     6     0     0 -7.107027998E+01 -9.766820929E+00  3.665040684E+01  8.055822620E+01  0.000000000E+00  0.00000E+00  9.000E+00
      12     1     6     6     0     0 -4.942228816E+01 -7.603229054E+01 -5.222135497E+00  9.083359770E+01  3.558851537E-06  0.00000E+00  9.000E+00
      13     1     5     5     0     0  1.539792478E+01 -3.379108038E+01 -1.119925019E+02  1.179883625E+02  0.000000000E+00  0.00000E+00  9.000E+00
     -14     1     5     5     0     0  3.853899139E+01 -1.610454376E+02 -1.695822495E+02  2.370211513E+02  2.697398305E-06  0.00000E+00  9.000E+00
       5     1     4     4   511     0  3.003130059E+00  9.358132771E+00  1.614612312E+01  1.948982378E+01  4.750000000E+00  0.00000E+00  9.000E+00
      -5     1     3     3     0   514 -3.749036926E+01 -2.398431776E+02 -4.603814991E+02  5.204843560E+02  4.750000000E+00  0.00000E+00  9.000E+00
      21     1     1     2   512   507  9.191288303E+01  5.074219963E+02 -4.008189386E+02  6.531315962E+02  5.394796609E-06  0.00000E+00  9.000E+00
      21     1     4     4   507   511  6.658537249E+00  2.580381952E+01  1.075189931E+01  2.873632820E+01  1.322094978E-06  0.00000E+00  9.000E+00
      21     1     3     3   514   502  2.471470899E+00 -2.210514149E+01 -5.185389212E+01  5.642314752E+01  9.536743164E-07  0.00000E+00  9.000E+00
#rwgt            1          17   31.580768408195819                1      839449           0       11011           0
<weights>
0.14983E+02
</weights>
</event>
<event>
     14  10001  1.35503E+01  1.01885E+01 -1.00000E+00  7.50921E-01
      21    -1     0     0   502   501  0.000000000E+00  0.000000000E+00  3.913057209E+01  3.913057209E+01  0.000000000E+00  0.00000E+00  9.000E+00
       2    -1     0     0   507     0  0.000000000E+00  0.000000000E+00 -1.906461061E+03  1.906461061E+03  0.000000000E+00  0.00000E+00  9.000E+00
      -6     2     1     2     0   501 -5.065617946E+01 -7.623517092E+01 -3.500089945E+02  4.027756705E+02  1.770426354E+02  0.00000E+00  9.000E+00
       6     2     1     2   507     0  6.048627303E+01  7.355661774E+01 -7.500462720E+02  7.754730977E+02  1.723947500E+02  0.00000E+00  9.000E+00
     -24     2     3     3     0     0 -4.917884292E+01 -7.700390795E+01 -3.485947418E+02  3.975472778E+02  1.678612035E+02  0.00000E+00  9.000E+00
      24     2     4     4     0     0  1.387708366E+01  9.555396546E+01 -3.561635739E+02  3.778699355E+02  8.130229373E+01  0.00000E+00  9.000E+00
     -11     1     6     6     0     0  4.105038130E+01  5.375271723E+01 -2.697993590E+02  2.781477710E+02  0.000000000E+00  0.00000E+00  9.000E+00
      12     1     6     6     0     0 -2.717329765E+01  4.180124824E+01 -8.636421498E+01  9.972216447E+01  9.536743164E-07  0.00000E+00  9.000E+00
      13     1     5     5     0     0  4.505617807E+01  2.555147428E+01 -9.829881865E+01  1.111107320E+02  0.000000000E+00  0.00000E+00  9.000E+00
     -14     1     5     5     0     0 -9.423502099E+01 -1.025553822E+02 -2.502959232E+02  2.864365458E+02  8.946258087E-06  0.00000E+00  9.000E+00
       5     1     4     4   512     0  4.648187802E+01 -2.380828972E+01 -3.819814599E+02  3.855642591E+02  4.750000000E+00  0.00000E+00  9.000E+00
      -5     1     3     3     0   501 -1.477336534E+00  7.687370222E-01 -1.414252671E+00  5.228392723E+00  4.750000000E+00  0.00000E+00  9.000E+00
       2     1     1     2   502     0 -9.830093569E+00  2.678553185E+00 -7.672752224E+02  7.673428649E+02  0.000000000E+00  0.00000E+00  9.000E+00
      21     1     4     4   507   512  1.273113446E-01  1.810941997E+00 -1.190123815E+01  1.203890313E+01  1.685873940E-07  0.00000E+00  9.000E+00
#rwgt            1          17  0.36841922201459970                1      841858           0         110           0
<weights>
0.11338E+02
</weights>
</event>
<event>
     15  10001  1.35503E+01  1.76269E+02 -1.00000E+00  2.26584E-01
      21    -1     0     0   502   511  0.000000000E+00  0.000000000E+00  3.544675631E+02  3.544675631E+02  0.000000000E+00  0.00000E+00  9.000E+00
      21    -1     0     0   507   502  0.000000000E+00  0.000000000E+00 -4.611654910E+02  4.611654910E+02  0.000000000E+00  0.00000E+00  9.000E+00
      -6     2     1     2     0   501 -1.482747368E+02  5.437161310E+01  2.020755801E+02  3.060251928E+02  1.669587036E+02  0.00000E+00  9.000E+00
       6     2     1     2   507     0  9.488520922E+01  1.136174838E+02 -1.515129893E+02  2.733841346E+02  1.728310260E+02  0.00000E+00  9.000E+00
     -24     2     3     3     0     0 -1.291486951E+02 -5.825871380E+00  1.842019220E+02  2.390837145E+02  8.073009502E+01  0.00000E+00  9.000E+00
      24     2     4     4     0     0  2.668079924E+00  3.066470981E+01 -1.125455672E+02  1.404683558E+02  7.821388112E+01  0.00000E+00  9.000E+00
     -11     1     6     6     0     0  2.726317822E+01  4.440587073E+01 -5.163427517E+01  7.335707610E+01  0.000000000E+00  0.00000E+00  9.000E+00
      12     1     6     6     0     0 -2.459509829E+01 -1.374116092E+01 -6.091129201E+01  6.711127966E+01  6.743495762E-07  0.00000E+00  9.000E+00
      13     1     5     5     0     0 -1.213362361E+02  1.909619595E+01  1.296126319E+02  1.785681417E+02  0.000000000E+00  0.00000E+00  9.000E+00
     -14     1     5     5     0     0 -7.812459027E+00 -2.492206733E+01  5.458929004E+01  6.051557274E+01  1.348699152E-06  0.00000E+00  9.000E+00
       5     1     4     4   512     0  9.398814388E+01  8.246898698E+01 -3.770300366E+01  1.306865869E+02  4.750000000E+00  0.00000E+00  9.000E+00
      -5     1     3     3     0   513 -1.653564011E+01  4.702582521E+01  9.071920684E+00  5.088927073E+01  4.750000000E+00  0.00000E+00  9.000E+00
      21     1     1     2   501   511  5.338952762E+01 -1.679890969E+02 -1.572605186E+02  2.362237267E+02  7.387129490E-06  0.00000E+00  9.000E+00
      21     1     3     3   513   501 -2.590401613E+00  1.317165927E+01  8.801737418E+00  1.605220763E+01  4.129530925E-07  0.00000E+00  9.000E+00
      21     1     4     4   507   512 -1.771014593E+00  4.837869673E-01 -1.264418509E+00  2.229191935E+00  4.712160915E-08  0.00000E+00  9.000E+00
#rwgt            1          17   11.427531722857816                1      859602           0       11110           0
<weights>
0.20770E+02
</weights>
</event>
<event>
     15  10001 -1.35503E+01  1.76371E+01 -1.00000E+00  1.63580E-01
      21    -1     0     0   507   501  0.000000000E+00  0.000000000E+00  3.417282566E+02  3.417282566E+02  0.000000000E+00  0.00000E+00  9.000E+00
       2    -1     0     0   501     0  0.000000000E+00  0.000000000E+00 -5.663361190E+02  5.663361190E+02  0.000000000E+00  0.00000E+00  9.000E+00
      -6     2     1     2     0   502  9.699741673E+01  1.408370420E+02  9.273808523E+01  2.594798823E+02  1.717145469E+02  0.00000E+00  9.000E+00
       6     2     1     2   507     0 -8.940418549E+01 -1.249181716E+02  8.442972497E+01  2.464218910E+02  1.731984756E+02  0.00000E+00  9.000E+00
     -24     2     3     3     0     0  1.101056147E+02  9.903705415E+01  1.167536144E+02  2.055919298E+02  8.188437365E+01  0.00000E+00  9.000E+00
      24     2     4     4     0     0 -8.732730504E+01 -1.696888127E+01  2.599129947E+01  1.233322183E+02  8.137129274E+01  0.00000E+00  9.000E+00
     -11     1     6     6     0     0 -4.900395107E+01 -1.528508965E+01 -2.693210650E+01  5.796860829E+01  0.000000000E+00  0.00000E+00  9.000E+00
      12     1     6     6     0     0 -3.832335397E+01 -1.683791621E+00  5.292340596E+01  6.536361000E+01  1.907348633E-06  0.00000E+00  9.000E+00
      13     1     5     5     0     0  8.253453541E+01  1.113187400E+02  1.015025122E+02  1.717747694E+02  0.000000000E+00  0.00000E+00  9.000E+00
     -14     1     5     5     0     0  2.757107929E+01 -1.228168588E+01  1.525110224E+01  3.381716045E+01  7.725644944E-07  0.00000E+00  9.000E+00
       5     1     4     4   511     0 -2.814270445E+00 -1.069281423E+02  5.766327098E+01  1.216107029E+02  4.750000000E+00  0.00000E+00  9.000E+00
      -5     1     3     3     0   512  9.022218981E-01  1.524188361E+01 -1.641047735E+01  2.291277563E+01  4.750000000E+00  0.00000E+00  9.000E+00
      21     1     3     3   512   502 -1.401041987E+01  2.655810425E+01 -7.605051870E+00  3.097517684E+01  2.920019320E-07  0.00000E+00  9.000E+00
       2     1     1     2   502     0 -7.593231235E+00 -1.591887041E+01 -4.017756725E+02  4.021626022E+02  0.000000000E+00  0.00000E+00  9.000E+00
      21     1     4     4   507   511  7.373899986E-01 -1.021148031E+00  7.751545209E-01  1.478969859E+00  3.494632065E-08  0.00000E+00  9.000E+00
#rwgt            1          17  -18.907157533806114                1      868897           0      110110           0
<weights>
-.16547E+02
</weights>
</event>
<event>
     14  10001  1.35503E+01  6.93420E+01 -1.00000E+00  7.43386E-01
      21    -1     0     0   507   511  0.000000000E+00  0.000000000E+00  1.210325089E+03  1.210325089E+03  0.000000000E+00  0.00000E+00  9.000E+00
      21    -1     0     0   501   502  0.000000000E+00  0.000000000E+00 -3.858223132E+01  3.858223132E+01  0.000000000E+00  0.00000E+00  9.000E+00
      -6     2     1     2     0   502 -5.410736213E+01  7.363929576E+00  3.964953861E+02  4.359829345E+02  1.728892532E+02  0.00000E+00  9.000E+00
       6     2     1     2   507     0 -1.103162016E+01  1.641061990E+01  5.765801965E+02  6.025033735E+02  1.737083390E+02  0.00000E+00  9.000E+00
     -24     2     3     3     0     0 -7.654307145E+00 -4.035820573E+01  3.294728047E+02  3.413791427E+02  7.937264528E+01  0.00000E+00  9.000E+00
      24     2     4     4     0     0 -2.461237620E+01  3.361360641E+01  5.691849309E+02  5.763120445E+02  8.017757485E+01  0.00000E+00  9.000E+00
     -11     1     6     6     0     0 -8.124370114E+00 -4.602151838E+00  4.995768039E+00  1.058975399E+01  0.000000000E+00  0.00000E+00  9.000E+00
      12     1     6     6     0     0 -1.648800608E+01  3.821575825E+01  5.641891629E+02  5.657222906E+02  1.321449896E-05  0.00000E+00  9.000E+00
      13     1     5     5     0     0 -3.157683232E+01 -4.814068250E+01  2.802256353E+02  2.860787100E+02  0.000000000E+00  0.00000E+00  9.000E+00
     -14     1     5     5     0     0  2.392252518E+01  7.782476774E+00  4.924716939E+01  5.530043263E+01  0.000000000E+00  0.00000E+00  9.000E+00
       5     1     4     4   512     0  1.466124577E+01 -1.799280966E+01  7.497852708E+00  2.484901652E+01  4.750000000E+00  0.00000E+00  9.000E+00
      -5     1     3     3     0   502 -4.645305499E+01  4.772213530E+01  6.702258143E+01  9.460379187E+01  4.750000000E+00  0.00000E+00  9.000E+00
      21     1     1     2   501   511  6.513898229E+01 -2.377454947E+01  1.986672749E+02  2.104210121E+02  3.814697266E-06  0.00000E+00  9.000E+00
      21     1     4     4   507   512 -1.080489735E+00  7.898231430E-01 -1.025871066E-01  1.342312474E+00  9.242174201E-08  0.00000E+00  9.000E+00
#rwgt            1          17   7.3509291097768541                1      876987           0         110           0
<weights>
0.13561E+02
</weights>
</event>
<event>
     15  10001  1.35503E+01  1.27154E+02 -1.00000E+00  6.48107E-01
      21    -1     0     0   512   501  0.000000000E+00  0.000000000E+00  1.047206479E+02  1.047206479E+02  0.000000000E+00  0.00000E+00  9.000E+00
      21    -1     0     0   507   502  0.000000000E+00  0.000000000E+00 -1.042885831E+03  1.042885831E+03  0.000000000E+00  0.00000E+00  9.000E+00
      -6     2     1     2     0   501  1.795532560E+01  1.205947328E+02 -6.284939533E+01  2.213527782E+02  1.737283012E+02  0.00000E+00  9.000E+00
       6     2     1     2   507     0 -3.296595648E+01  5.670016158E+00 -4.798030587E+02  5.108040349E+02  1.720200091E+02  0.00000E+00  9.000E+00
     -24     2     3     3     0     0 -5.449423454E+01  4.372984759E+01 -3.820373359E+01  1.125059322E+02  7.947413644E+01  0.00000E+00  9.000E+00
      24     2     4     4     0     0 -5.410289075E+01 -2.621669357E+01 -1.651736005E+02  1.935962941E+02  8.113426516E+01  0.00000E+00  9.000E+00
     -11     1     6     6     0     0 -3.711052090E+01 -2.892478920E+00 -1.600072852E+02  1.642799090E+02  0.000000000E+00  0.00000E+00  9.000E+00
      12     1     6     6     0     0 -1.699236984E+01 -2.332421465E+01 -5.166315344E+00  2.931638512E+01  8.408269870E-07  0.00000E+00  9.000E+00
      13     1     5     5     0     0 -5.065678018E+01  6.007367802E+01 -4.894326083E+01  9.257644921E+01  0.000000000E+00  0.00000E+00  9.000E+00
     -14     1     5     5     0     0 -3.837454360E+00 -1.634383042E+01  1.073952724E+01  1.992948304E+01  5.331201500E-07  0.00000E+00  9.000E+00
       5     1     4     4   511     0  2.082204090E+01  2.733997631E+01 -2.469519106E+02  2.493769042E+02  4.750000000E+00  0.00000E+00  9.000E+00
      -5     1     3     3     0   513  7.179291568E+01  7.562880144E+01 -2.512487977E+01  1.073674086E+02  4.750000000E+00  0.00000E+00  9.000E+00
      21     1     1     2   512   502  1.501063088E+01 -1.262647490E+02 -3.955127294E+02  4.154496660E+02  7.629394531E-06  0.00000E+00  9.000E+00
      21     1     4     4   507   511  3.148933591E-01  4.546733418E+00 -6.767754756E+01  6.783083655E+01  0.000000000E+00  0.00000E+00  9.000E+00
      21     1     3     3   513   501  6.566444612E-01  1.236083779E+00  4.792180244E-01  1.479437383E+00  4.562530187E-08  0.00000E+00  9.000E+00
#rwgt            1          17   45.562044087226369                1      884588           0       11011           0
<weights>
0.11396E+02
</weights>
</event>
<event>
     15  10001  1.35503E+01  3.40752E+01 -1.00000E+00  6.27331E-01
      21    -1     0     0   511   501  0.000000000E+00  0.000000000E+00  9.031750579E+02  9.031750579E+02  0.000000000E+00  0.00000E+00  9.000E+00
      21    -1     0     0   507   502  0.000000000E+00  0.000000000E+00 -6.540436984E+01  6.540436984E+01  0.000000000E+00  0.00000E+00  9.000E+00
      -6     2     1     2     0   501  4.088578410E+01  9.423872173E+01  5.852756931E+02  6.217327994E+02  1.828973837E+02  0.00000E+00  9.000E+00
       6     2     1     2   507     0 -6.529037086E+01 -7.045766727E+01  1.832618717E+02  2.696822080E+02  1.729637658E+02  0.00000E+00  9.000E+00
     -24     2     3     3     0     0  8.798664372E+01  5.999494949E+01  5.050640274E+02  5.224070620E+02  8.048865291E+01  0.00000E+00  9.000E+00
      24     2     4     4     0     0 -1.057776520E+02 -7.509950364E+01  1.602891663E+02  2.211719417E+02  7.997226935E+01  0.00000E+00  9.000E+00
     -11     1     6     6     0     0  7.419847949E+00 -1.567245106E+00 -3.974096712E+00  8.561766493E+00  0.000000000E+00  0.00000E+00  9.000E+00
      12     1     6     6     0     0 -1.131974999E+02 -7.353225853E+01  1.642632630E+02  2.126101752E+02  6.031565972E-06  0.00000E+00  9.000E+00
      13     1     5     5     0     0  6.701703728E+01  5.976907234E+01  2.356739487E+02  2.522019734E+02  0.000000000E+00  0.00000E+00  9.000E+00
     -14     1     5     5     0     0  2.096960644E+01  2.258771426E-01  2.693900787E+02  2.702050886E+02  5.394796609E-06  0.00000E+00  9.000E+00
       5     1     4     4   512     0  1.786832706E+01  6.944084477E+00  8.126500773E+00  2.135649634E+01  4.750000000E+00  0.00000E+00  9.000E+00
      -5     1     3     3     0   514 -4.471264682E+01  3.325963027E+01  7.758145004E+01  9.563925806E+01  4.750000000E+00  0.00000E+00  9.000E+00
      21     1     1     2   511   502  2.440458676E+01 -2.378105446E+01  6.923312325E+01  7.716442030E+01  9.536743164E-07  0.00000E+00  9.000E+00
      21     1     4     4   507   512  2.261895405E+01 -2.302248108E+00  1.484620466E+01  2.715376993E+01  7.152557373E-07  0.00000E+00  9.000E+00
      21     1     3     3   514   501 -2.388212802E+00  9.841419648E-01  2.630215689E+00  3.686479400E+00  9.884312124E-08  0.00000E+00  9.000E+00
#rwgt            1          17   19.974650812034213                1      892817           0       11011           0
<weights>
0.13548E+02
</weights>
</event>
<event>
     15  10001  1.35503E+01  4.71680E+01 -1.00000E+00  1.62556E-01
      21    -1     0     0   512   501  0.000000000E+00  0.000000000E+00  2.309145660E+02  2.309145660E+02  0.000000000E+00  0.00000E+00  9.000E+00
      21    -1     0     0   507   502  0.000000000E+00  0.000000000E+00 -6.174388631E+02  6.174388631E+02  0.000000000E+00  0.00000E+00  9.000E+00
      -6     2     1     2     0   501 -1.549545421E+01 -2.195159389E+02  5.573995877E+01  2.852264634E+02  1.726842085E+02  0.00000E+00  9.000E+00
       6     2     1     2   507     0  8.023996744E+00  1.729434064E+02 -1.984307493E+02  3.147731809E+02  1.724342971E+02  0.00000E+00  9.000E+00
     -24     2     3     3     0     0 -6.667655085E+01 -1.641447395E+02  2.833387380E+01  1.961117362E+02  7.916910205E+01  0.00000E+00  9.000E+00
      24     2     4     4     0     0  5.414372108E+01  1.336030836E+02 -1.792841028E+02  2.436017910E+02  8.011065208E+01  0.00000E+00  9.000E+00
     -11     1     6     6     0     0  1.291334795E+01  1.034248976E+01 -7.545623304E+01  7.724872008E+01  0.000000000E+00  0.00000E+00  9.000E+00
      12     1     6     6     0     0  4.123037313E+01  1.232605938E+02 -1.038278698E+02  1.663530709E+02  3.015782986E-06  0.00000E+00  9.000E+00
      13     1     5     5     0     0 -3.721634395E+01 -1.500573070E+02  2.749851901E+00  1.546279837E+02  0.000000000E+00  0.00000E+00  9.000E+00
     -14     1     5     5     0     0 -2.946020690E+01 -1.408743247E+01  2.558402190E+01  4.148375249E+01  1.815741803E-06  0.00000E+00  9.000E+00
       5     1     4     4   513     0 -3.747172814E+01  4.455546808E+01 -1.548223842E+01  6.042832409E+01  4.750000000E+00  0.00000E+00  9.000E+00
      -5     1     3     3     0   511  4.210240944E+01 -4.260693929E+01  3.717197389E+01  7.065608466E+01  4.750000000E+00  0.00000E+00  9.000E+00
      21     1     1     2   512   502  7.471457463E+00  4.657253248E+01 -2.438335066E+02  2.483537848E+02  6.607249480E-06  0.00000E+00  9.000E+00
      21     1     3     3   511   501  9.078687198E+00 -1.276426014E+01 -9.765888920E+00  1.845864254E+01  2.665600750E-07  0.00000E+00  9.000E+00
      21     1     4     4   507   513 -8.647996195E+00 -5.215145229E+00 -3.664408042E+00  1.074306587E+01  5.794233708E-07  0.00000E+00  9.000E+00
#rwgt            1          17   8.3870134968521590                1      898324           0       11110           0
<weights>
-.57829E+00
</weights>
</event>
<event>
     15  10001  1.35503E+01  1.00206E+01 -1.00000E+00  2.66110E-01
      21    -1     0     0   502   501  0.000000000E+00  0.000000000E+00  4.838011401E+02  4.838011401E+02  0.000000000E+00  0.00000E+00  9.000E+00
      21    -1     0     0   512   502  0.000000000E+00  0.000000000E+00 -1.258336024E+02  1.258336024E+02  0.000000000E+00  0.00000E+00  9.000E+00
      -6     2     1     2     0   501  1.392926867E+02  5.042463118E+01  2.765518404E+02  3.580139191E+02  1.724759399E+02  0.00000E+00  9.000E+00
       6     2     1     2   507     0 -1.333840661E+02 -5.851790395E+01  7.097178623E+01  2.371471183E+02  1.731649708E+02  0.00000E+00  9.000E+00
     -24     2     3     3     0     0  1.591134514E+02  5.280708116E+01  1.884383914E+02  2.651705966E+02  8.185804604E+01  0.00000E+00  9.000E+00
      24     2     4     4     0     0 -3.269892328E+01 -5.069841719E+01  6.870753463E+01  1.232113461E+02  8.258790102E+01  0.00000E+00  9.000E+00
     -11     1     6     6     0     0 -1.512665245E+01 -1.596988784E-01 -1.663359432E+01  2.248371807E+01  0.000000000E+00  0.00000E+00  9.000E+00
      12     1     6     6     0     0 -1.757227082E+01 -5.053871832E+01  8.534112895E+01  1.007276280E+02  1.907348633E-06  0.00000E+00  9.000E+00
      13     1     5     5     0     0  7.469532012E+01  4.583873142E+01  4.482295320E+01  9.843615840E+01  0.000000000E+00  0.00000E+00  9.000E+00
     -14     1     5     5     0     0  8.441813128E+01  6.968349739E+00  1.436154382E+02  1.667344382E+02  2.697398305E-06  0.00000E+00  9.000E+00
       5     1     4     4   511     0 -2.217380051E+00  1.177920131E+01  4.070511516E+00  1.352027817E+01  4.750000000E+00  0.00000E+00  9.000E+00
      -5     1     3     3     0   514 -2.245081919E+01 -5.444957011E+00  8.323132796E+01  8.650840013E+01  4.750000000E+00  0.00000E+00  9.000E+00
      21     1     4     4   507   511 -9.846776277E+01 -1.959868806E+01 -1.806259915E+00  1.004154941E+02  3.249751606E-06  0.00000E+00  9.000E+00
      21     1     1     2   512   507 -5.908620651E+00  8.093272767E+00  1.044391111E+01  1.447370517E+01  2.384185791E-07  0.00000E+00  9.000E+00
      21     1     3     3   514   501  2.630054532E+00  3.062507029E+00  4.882120965E+00  6.334922357E+00  1.192092896E-07  0.00000E+00  9.000E+00
#rwgt            1          17   13.096320645372746                1      901885           0      100111           0
<weights>
0.10869E+02
</weights>
</event>
<event>
     15  10001  1.35503E+01  4.70758E+01 -1.00000E+00  3.20210E-01
      21    -1     0     0   507   501  0.000000000E+00  0.000000000E+00  1.826813908E+02  1.826813908E+02  0.000000000E+00  0.00000E+00  9.000E+00
      21    -1     0     0   512   502  0.000000000E+00  0.000000000E+00 -6.796068406E+02  6.796068406E+02  0.000000000E+00  0.00000E+00  9.000E+00
      -6     2     1     2     0   502  3.965967339E+00  2.958328375E+01 -3.061876442E+02  3.526561040E+02  1.724081049E+02  0.00000E+00  9.000E+00
       6     2     1     2   507     0 -3.649112449E+01  4.449684450E+00  1.080876863E+02  2.071212957E+02  1.728145866E+02  0.00000E+00  9.000E+00
     -24     2     3     3     0     0 -5.255518461E+01  4.620710474E+01 -1.519586418E+02  1.865983663E+02  8.264609815E+01  0.00000E+00  9.000E+00
      24     2     4     4     0     0 -4.869965355E+01  1.698218933E+01 -2.659866039E+00  9.459922251E+01  7.925835604E+01  0.00000E+00  9.000E+00
     -11     1     6     6     0     0 -2.372231234E+00  4.158544115E+01  3.418058847E+00  4.179305592E+01  0.000000000E+00  0.00000E+00  9.000E+00
      12     1     6     6     0     0 -4.632742232E+01 -2.460325182E+01 -6.077924886E+00  5.280616659E+01  1.062903076E-06  0.00000E+00  9.000E+00
      13     1     5     5     0     0 -5.718434817E+01 -6.609064944E-01 -5.775508572E+01  8.127814220E+01  0.000000000E+00  0.00000E+00  9.000E+00
     -14     1     5     5     0     0  4.629163561E+00  4.686801124E+01 -9.420355604E+01  1.053202241E+02  1.348699152E-06  0.00000E+00  9.000E+00
       5     1     4     4   511     0  7.957819018E+00 -1.189529643E+01  7.376038817E+01  7.528600350E+01  4.750000000E+00  0.00000E+00  9.000E+00
      -5     1     3     3     0   513  5.778319750E+01 -1.649059558E+01 -1.507440879E+02  1.623489458E+02  4.750000000E+00  0.00000E+00  9.000E+00
      21     1     1     2   512   501  3.252515715E+01 -3.403296821E+01 -2.988254918E+02  3.025108317E+02  1.078959322E-05  0.00000E+00  9.000E+00
      21     1     4     4   507   511  4.250710041E+00 -6.372084433E-01  3.698716416E+01  3.723606966E+01  1.966049969E-06  0.00000E+00  9.000E+00
      21     1     3     3   513   502 -1.262045557E+00 -1.332254037E-01 -3.484914582E+00  3.708791938E+00  4.214684851E-08  0.00000E+00  9.000E+00
#rwgt            1          17   91.209709750433603                1      909393           0       11011           0
<weights>
0.13156E+02
</weights>
</event>
<event>
     15  10001  1.35503E+01  1.56631E+01 -1.00000E+00  4.13172E-01
      21    -1     0     0   507   501  0.000000000E+00  0.000000000E+00  1.133197327E+03  1.133197327E+03  0.000000000E+00  0.00000E+00  9.000E+00
      21    -1     0     0   511   502  0.000000000E+00  0.000000000E+00 -4.343656136E+01  4.343656136E+01  0.000000000E+00  0.00000E+00  9.000E+00
      -6     2     1     2     0   502 -3.520556645E+01  6.844110147E+01  2.634833782E+02  3.243698801E+02  1.728256699E+02  0.00000E+00  9.000E+00
       6     2     1     2   507     0  4.849525629E+01 -6.015159957E+01  7.013163403E+02  7.263251542E+02  1.724343805E+02  0.00000E+00  9.000E+00
     -24     2     3     3     0     0 -3.700400907E+01  9.077121998E+01  1.093612185E+02  1.679150198E+02  8.140556914E+01  0.00000E+00  9.000E+00
      24     2     4     4     0     0  7.263514168E+01 -1.405199545E+01  2.661454403E+02  2.878267844E+02  8.085505582E+01  0.00000E+00  9.000E+00
     -11     1     6     6     0     0  3.168305043E+01 -2.416235440E+01  2.263680202E+02  2.298480272E+02  0.000000000E+00  0.00000E+00  9.000E+00
      12     1     6     6     0     0  4.095209125E+01  1.011035896E+01  3.977742015E+01  5.797875723E+01  1.784161275E-06  0.00000E+00  9.000E+00
      13     1     5     5     0     0 -1.166703792E+01 -2.729218507E+00 -8.985090040E+00  1.497665686E+01  0.000000000E+00  0.00000E+00  9.000E+00
     -14     1     5     5     0     0 -2.533697115E+01  9.350043849E+01  1.183463086E+02  1.529383629E+02  1.348699152E-06  0.00000E+00  9.000E+00
       5     1     4     4   512     0 -2.571573265E+01 -4.474880200E+01  4.201313837E+02  4.233163075E+02  4.750000000E+00  0.00000E+00  9.000E+00
      -5     1     3     3     0   514  1.778668788E+00 -2.277411510E+01  1.542402489E+02  1.559950027E+02  4.750000000E+00  0.00000E+00  9.000E+00
      21     1     1     2   511   501 -1.328968984E+01 -8.289501906E+00  1.249610471E+02  1.259388542E+02  0.000000000E+00  0.00000E+00  9.000E+00
      21     1     4     4   507   512  1.575847262E+00 -1.350802120E+00  1.503951634E+01  1.518206220E+01  0.000000000E+00  0.00000E+00  9.000E+00
      21     1     3     3   514   502  1.977383161E-02  4.439965924E-01 -1.180891466E-01  4.598576138E-01  3.226196035E-09  0.00000E+00  9.000E+00
#rwgt            1          17   18.087765543157925                1      919707           0       11011           0
<weights>
0.13698E+02
</weights>
</event>
<event>
     15  10001  1.35503E+01  1.04719E+02 -1.00000E+00  3.49285E-01
      21    -1     0     0   502   501  0.000000000E+00  0.000000000E+00  3.627169895E+01  3.627169895E+01  0.000000000E+00  0.00000E+00  9.000E+00
      21    -1     0     0   507   512  0.000000000E+00  0.000000000E+00 -2.919561761E+03  2.919561761E+03  0.000000000E+00  0.00000E+00  9.000E+00
      -6     2     1     2     0   501 -1.857205061E+02  8.889787364E+01 -1.561568206E+03  1.584541280E+03  1.728608334E+02  0.00000E+00  9.000E+00
       6     2     1     2   507     0  8.112292155E+01 -8.386674652E+01 -1.160469333E+03  1.179020645E+03  1.725863537E+02  0.00000E+00  9.000E+00
     -24     2     3     3     0     0 -2.025554015E+01  3.234633282E+01 -6.606342267E+02  6.666700613E+02  8.096182444E+01  0.00000E+00  9.000E+00
      24     2     4     4     0     0  1.016042651E+02 -1.107683731E+02 -8.871767381E+02  9.034456534E+02  8.086052700E+01  0.00000E+00  9.000E+00
     -11     1     6     6     0     0  3.777781467E+01 -5.845976800E+01 -6.178920871E+02  6.218000796E+02  0.000000000E+00  0.00000E+00  9.000E+00
      12     1     6     6     0     0  6.382645040E+01 -5.230860508E+01 -2.692846510E+02  2.816455738E+02  6.607249480E-06  0.00000E+00  9.000E+00
      13     1     5     5     0     0 -7.408798773E+00 -2.422566341E+01 -1.048779739E+02  1.078942190E+02  0.000000000E+00  0.00000E+00  9.000E+00
     -14     1     5     5     0     0 -1.284674138E+01  5.657199623E+01 -5.557562527E+02  5.587758423E+02  7.629394531E-06  0.00000E+00  9.000E+00
       5     1     4     4   511     0 -1.646925271E+01  2.461735091E+01 -2.525262505E+02  2.543016318E+02  4.750000000E+00  0.00000E+00  9.000E+00
      -5     1     3     3     0   513 -1.642503242E+02  5.459040697E+01 -8.915117500E+02  9.081707133E+02  4.750000000E+00  0.00000E+00  9.000E+00
      21     1     1     2   502   512  1.045975845E+02 -5.031127118E+00 -1.612525239E+02  1.922715356E+02  3.303624740E-06  0.00000E+00  9.000E+00
      21     1     4     4   507   511 -4.012090805E+00  2.284275651E+00 -2.076634399E+01  2.127335965E+01  2.384185791E-07  0.00000E+00  9.000E+00
      21     1     3     3   513   501 -1.214641673E+00  1.961133855E+00 -9.422229219E+00  9.700505340E+00  1.192092896E-07  0.00000E+00  9.000E+00
#rwgt            1          17   38.856552222207192                1      929387           0       11011           0
<weights>
0.13295E+02
</weights>
</event>
<event>
     15  10001 -1.35503E+01  3.54429E+01 -1.00000E+00  3.46597E-01
      21    -1     0     0   511   501  0.000000000E+00  0.000000000E+00  6.720097976E+02  6.720097976E+02  0.000000000E+00  0.00000E+00  9.000E+00
      21    -1     0     0   507   502  0.000000000E+00  0.000000000E+00 -2.433424892E+02  2.433424892E+02  0.000000000E+00  0.00000E+00  9.000E+00
      -6     2     1     2     0   501 -2.996281833E+01  2.641458669E+02  2.663845700E+02  4.136509775E+02  1.716845439E+02  0.00000E+00  9.000E+00
       6     2     1     2   507     0  1.993782786E+01 -2.981414761E+02  9.535092016E+00  3.448955525E+02  1.719772294E+02  0.00000E+00  9.000E+00
     -24     2     3     3     0     0  7.009825639E-01  1.124571417E+02  4.867354629E+01  1.461713520E+02  7.968594573E+01  0.00000E+00  9.000E+00
      24     2     4     4     0     0 -5.086609263E+01 -1.952899429E+02 -1.239002680E+01  2.178576931E+02  8.113532213E+01  0.00000E+00  9.000E+00
     -11     1     6     6     0     0 -6.659924676E+01 -9.554469723E+01 -4.063232189E+00  1.165365123E+02  0.000000000E+00  0.00000E+00  9.000E+00
      12     1     6     6     0     0  1.573315413E+01 -9.974524567E+01 -8.326794614E+00  1.013211808E+02  2.480584627E-06  0.00000E+00  9.000E+00
      13     1     5     5     0     0  4.606376157E+00  1.214701156E+02  3.020630038E+01  1.252542545E+02  0.000000000E+00  0.00000E+00  9.000E+00
     -14     1     5     5     0     0 -3.905393594E+00 -9.012973897E+00  1.846724591E+01  2.091709753E+01  1.066240300E-06  0.00000E+00  9.000E+00
       5     1     4     4   514     0  6.756145796E+01 -9.582757293E+01  2.142330367E+01  1.192853502E+02  4.750000000E+00  0.00000E+00  9.000E+00
      -5     1     3     3     0   512 -2.853100651E+01  1.483425335E+02  2.143773609E+02  2.622970471E+02  4.750000000E+00  0.00000E+00  9.000E+00
      21     1     1     2   511   502  1.002499046E+01  3.399560917E+01  1.527476464E+02  1.568057568E+02  1.907348633E-06  0.00000E+00  9.000E+00
      21     1     3     3   512   501 -2.132794382E+00  3.346191709E+00  3.333662827E+00  5.182578381E+00  4.214684851E-08  0.00000E+00  9.000E+00
      21     1     4     4   507   514  3.242462538E+00 -7.023960234E+00  5.018151466E-01  7.752509214E+00  4.080851059E-08  0.00000E+00  9.000E+00
#rwgt            1          17  -3.0456123051036821                1      936007           0       11110           0
<weights>
-.15963E+02
</weights>
</event>
<event>
     15  10001  1.35503E+01  2.80782E+01 -1.00000E+00  2.70026E-01
      21    -1     0     0   512   501  0.000000000E+00  0.000000000E+00  1.160166650E+03  1.160166650E+03  0.000000000E+00  0.00000E+00  9.000E+00
      21    -1     0     0   507   502  0.000000000E+00  0.000000000E+00 -2.844808387E+02  2.844808387E+02  0.000000000E+00  0.00000E+00  9.000E+00
      -6     2     1     2     0   501 -4.785379123E+01 -7.474709832E+01 -1.317457933E+02  2.357224850E+02  1.741580370E+02  0.00000E+00  9.000E+00
       6     2     1     2   507     0  2.638969110E+01  9.284902245E+01 -3.428850758E+00  1.976746649E+02  1.724707493E+02  0.00000E+00  9.000E+00
     -24     2     3     3     0     0 -4.086604176E+01 -9.973491592E+01 -1.485744570E+02  1.997873761E+02  7.888941346E+01  0.00000E+00  9.000E+00
      24     2     4     4     0     0  7.153491736E+01  4.511785251E+01  2.030601033E+01  1.186384807E+02  8.068388957E+01  0.00000E+00  9.000E+00
     -11     1     6     6     0     0  5.086145769E+01 -1.518379255E+01  7.314574200E+00  5.358113875E+01  0.000000000E+00  0.00000E+00  9.000E+00
      12     1     6     6     0     0  2.067345967E+01  6.030164506E+01  1.299143613E+01  6.505734197E+01  9.386548846E-07  0.00000E+00  9.000E+00
      13     1     5     5     0     0 -6.302984889E+01 -7.939424457E+01 -1.282796565E+02  1.634988630E+02  0.000000000E+00  0.00000E+00  9.000E+00
     -14     1     5     5     0     0  2.216380713E+01 -2.034067135E+01 -2.029480048E+01  3.628851312E+01  1.846782373E-06  0.00000E+00  9.000E+00
       5     1     4     4   511     0 -4.266020780E+01  5.275566488E+01 -1.668345930E+01  7.002823588E+01  4.750000000E+00  0.00000E+00  9.000E+00
      -5     1     3     3     0   513 -4.357207089E+00  2.395910513E+01  1.986825901E+01  3.178575449E+01  4.750000000E+00  0.00000E+00  9.000E+00
      21     1     1     2   512   502  2.146410013E+01 -1.810192414E+01  1.010860455E+03  1.011250338E+03  1.078959322E-05  0.00000E+00  9.000E+00
      21     1     4     4   507   511 -2.485018458E+00 -5.024494934E+00 -7.051401783E+00  9.007948333E+00  3.475518164E-07  0.00000E+00  9.000E+00
      21     1     3     3   513   501 -2.630542385E+00  1.028712469E+00 -3.039595270E+00  4.149354406E+00  1.332800375E-07  0.00000E+00  9.000E+00
#rwgt            1          17   9.1848005078037378                1      952833           0       11011           0
<weights>
0.14042E+02
</weights>
</event>
<event>
     15  10001  1.35503E+01  3.29820E+01 -1.00000E+00  1.29987E-01
      21    -1     0     0   507   512  0.000000000E+00  0.000000000E+00  1.537128026E+03  1.537128026E+03  0.000000000E+00  0.00000E+00  9.000E+00
      21    -1     0     0   501   502  0.000000000E+00  0.000000000E+00 -9.122801603E+01  9.122801603E+01  0.000000000E+00  0.00000E+00  9.000E+00
      -6     2     1     2     0   502 -4.547417711E+01  2.823840042E+01  7.956065931E+01  2.068206243E+02  1.832472758E+02  0.00000E+00  9.000E+00
       6     2     1     2   507     0  5.712879248E+01 -5.909257546E+01  3.106526127E+02  3.653335909E+02  1.738043597E+02  0.00000E+00  9.000E+00
     -24     2     3     3     0     0  1.716405295E+01 -2.097451907E+00 -1.669557256E+01  8.422407414E+01  8.072142531E+01  0.00000E+00  9.000E+00
      24     2     4     4     0     0  1.010779000E+02 -5.308857063E+01  2.326906394E+02  2.718112709E+02  8.186143876E+01  0.00000E+00  9.000E+00
     -11     1     6     6     0     0  2.617971836E+01 -3.291366536E+01  1.602524643E+02  1.656790250E+02  0.000000000E+00  0.00000E+00  9.000E+00
      12     1     6     6     0     0  7.489818160E+01 -2.017490528E+01  7.243817507E+01  1.061322459E+02  2.132480600E-06  0.00000E+00  9.000E+00
      13     1     5     5     0     0 -1.053891255E+01 -1.238995338E+01  2.697135366E+01  3.149656396E+01  0.000000000E+00  0.00000E+00  9.000E+00
     -14     1     5     5     0     0  2.770296551E+01  1.029250147E+01 -4.366692623E+01  5.272751019E+01  1.719260824E-06  0.00000E+00  9.000E+00
       5     1     4     4   514     0 -4.587757197E+01 -2.905811354E+00  6.306807982E+01  7.818785418E+01  4.750000000E+00  0.00000E+00  9.000E+00
      -5     1     3     3     0   511 -4.540758285E+00  1.102755284E+01  7.801756230E+00  1.502182771E+01  4.750000000E+00  0.00000E+00  9.000E+00
      21     1     3     3   511   502 -5.809747178E+01  1.930829949E+01  8.845447564E+01  1.075747225E+02  2.697398305E-06  0.00000E+00  9.000E+00
      21     1     1     2   501   512 -1.165461536E+01  3.085417503E+01  1.055686738E+03  1.056201827E+03  0.000000000E+00  0.00000E+00  9.000E+00
      21     1     4     4   507   514  1.928464479E+00 -3.098193468E+00  1.489389346E+01  1.533446577E+01  0.000000000E+00  0.00000E+00  9.000E+00
#rwgt            1          17   26.983199233933181                1      962087           0      110110           0
<weights>
0.14070E+02
</weights>
</event>
<event>
     15  10001  1.35503E+01  2.04763E+01 -1.00000E+00  4.86892E-01
      21    -1     0     0   512   501  0.000000000E+00  0.000000000E+00  3.852378456E+03  3.852378456E+03  0.000000000E+00  0.00000E+00  9.000E+00
      21    -1     0     0   501   502  0.000000000E+00  0.000000000E+00 -1.316910775E+03  1.316910775E+03  0.000000000E+00  0.00000E+00  9.000E+00
      -6     2     1     2     0   502 -1.319222828E+01  2.608174256E+00 -1.218150247E+03  1.230345614E+03  1.722772993E+02  0.00000E+00  9.000E+00
       6     2     1     2   507     0 -7.089022754E+00  2.112664672E-01 -1.188414305E+01  1.733858721E+02  1.728326616E+02  0.00000E+00  9.000E+00
     -24     2     3     3     0     0 -4.526491632E+01  5.375809657E+01 -8.060168564E+02  8.137166664E+02  8.679167536E+01  0.00000E+00  9.000E+00
      24     2     4     4     0     0 -6.952626990E+01  2.618457933E+01 -4.304256345E+00  1.044871915E+02  7.334515781E+01  0.00000E+00  9.000E+00
     -11     1     6     6     0     0  1.117507136E+01 -1.299734204E+00  1.331585285E+01  1.743225361E+01  0.000000000E+00  0.00000E+00  9.000E+00
      12     1     6     6     0     0 -8.070134126E+01  2.748431354E+01 -1.762010919E+01  8.705493794E+01  1.719260824E-06  0.00000E+00  9.000E+00
      13     1     5     5     0     0 -4.036291204E+01 -5.323066305E+00 -1.643718499E+02  1.693387278E+02  0.000000000E+00  0.00000E+00  9.000E+00
     -14     1     5     5     0     0 -4.902004274E+00  5.908116287E+01 -6.416450065E+02  6.443779386E+02  2.750817318E-05  0.00000E+00  9.000E+00
       5     1     4     4   513     0  6.223194142E+01 -2.618947873E+01 -6.754662207E+00  6.802125617E+01  4.750000000E+00  0.00000E+00  9.000E+00
      -5     1     3     3     0   511  3.104631368E+01 -5.023510030E+01 -4.078423682E+02  4.121230383E+02  4.750000000E+00  0.00000E+00  9.000E+00
      21     1     1     2   512   507  2.028125103E+01 -2.819440724E+00  3.765502072E+03  3.765557745E+03  6.103515625E-05  0.00000E+00  9.000E+00
      21     1     3     3   511   502  1.026374361E+00 -9.148220168E-01 -4.291022724E+00  4.505909417E+00  1.884864366E-07  0.00000E+00  9.000E+00
      21     1     4     4   507   513  2.053057237E-01  2.161658667E-01 -8.252244984E-01  8.774244098E-01  1.053671213E-08  0.00000E+00  9.000E+00
#rwgt            1          17   5.5443669772119462                1      965713           0       11110           0
<weights>
0.13038E+02
</weights>
</event>
<event>
     14  10001  1.35503E+01  7.81142E+00 -1.00000E+00  7.47250E-01
      21    -1     0     0   502   512  0.000000000E+00  0.000000000E+00  4.000168153E+02  4.000168153E+02  0.000000000E+00  0.00000E+00  9.000E+00
      21    -1     0     0   507   502  0.000000000E+00  0.000000000E+00 -1.762767460E+02  1.762767460E+02  0.000000000E+00  0.00000E+00  9.000E+00
      -6     2     1     2     0   501 -7.419473106E+01 -2.989125582E+01  2.106201054E+02  2.836265698E+02  1.722929395E+02  0.00000E+00  9.000E+00
       6     2     1     2   507     0  7.917994491E+01  3.590507289E+01 -7.295575169E+01  2.062375569E+02  1.721997394E+02  0.00000E+00  9.000E+00
     -24     2     3     3     0     0 -9.327767191E+01 -6.949629611E+01  1.862969616E+02  2.331597919E+02  7.827177915E+01  0.00000E+00  9.000E+00
      24     2     4     4     0     0  1.084257685E+02  2.224501283E+01 -1.326461344E+01  1.361086746E+02  7.809374795E+01  0.00000E+00  9.000E+00
     -11     1     6     6     0     0 -6.606896449E+00  1.550233022E+01  8.448403650E+00  1.885069885E+01  0.000000000E+00  0.00000E+00  9.000E+00
      12     1     6     6     0     0  1.150326649E+02  6.742682612E+00 -2.171301709E+01  1.172579757E+02  2.185142372E-06  0.00000E+00  9.000E+00
      13     1     5     5     0     0 -8.626331097E+01 -2.706128343E+01  1.568304248E+02  1.810233521E+02  0.000000000E+00  0.00000E+00  9.000E+00
     -14     1     5     5     0     0 -7.014360950E+00 -4.243501269E+01  2.946653683E+01  5.213643979E+01  8.920806376E-07  0.00000E+00  9.000E+00
       5     1     4     4   511     0 -1.958420060E+01  1.681759426E+01 -4.737351344E+01  5.415888353E+01  4.750000000E+00  0.00000E+00  9.000E+00
      -5     1     3     3     0   501  1.908294085E+01  3.960504029E+01  2.432314379E+01  5.046677790E+01  4.750000000E+00  0.00000E+00  9.000E+00
      21     1     4     4   507   511 -9.661622950E+00 -3.157534206E+00 -1.231762482E+01  1.596999879E+01  6.307962682E-07  0.00000E+00  9.000E+00
      21     1     1     2   501   512 -4.985213846E+00 -6.013817067E+00  8.607571558E+01  8.642943460E+01  1.348699152E-06  0.00000E+00  9.000E+00
#rwgt            1          17   52.379464245232811                1      976270           0        1001           0
<weights>
0.13231E+02
</weights>
</event>
<event>
     15  10001  1.35503E+01  1.99588E+01 -1.00000E+00  2.66365E-01
      21    -1     0     0   502   512  0.000000000E+00  0.000000000E+00  1.018217964E+02  1.018217964E+02  0.000000000E+00  0.00000E+00  9.000E+00
      21    -1     0     0   507   502  0.000000000E+00  0.000000000E+00 -9.748257994E+02  9.748257994E+02  0.000000000E+00  0.00000E+00  9.000E+00
      -6     2     1     2     0   501  5.313632307E+01  5.334052040E+01 -8.172092426E+01  2.044863890E+02  1.716615679E+02  0.00000E+00  9.000E+00
       6     2     1     2   507     0 -3.688358417E+01 -6.492515888E+01 -1.790362535E+02  2.595891455E+02  1.725017952E+02  0.00000E+00  9.000E+00
     -24     2     3     3     0     0  1.936419287E+01  9.706101898E+01 -3.720125244E+01  1.331760242E+02  8.096978982E+01  0.00000E+00  9.000E+00
      24     2     4     4     0     0 -3.092090040E+01 -5.591813720E+01 -2.057647683E+02  2.295850859E+02  7.929206553E+01  0.00000E+00  9.000E+00
     -11     1     6     6     0     0 -1.581201841E+01 -2.335015252E+01 -9.043798568E+00  2.961485846E+01  0.000000000E+00  0.00000E+00  9.000E+00
      12     1     6     6     0     0 -1.510888199E+01 -3.256798468E+01 -1.967209697E+02  1.999702274E+02  2.697398305E-06  0.00000E+00  9.000E+00
      13     1     5     5     0     0 -2.550352900E+01  6.738461836E+01 -9.513807424E+00  7.267481898E+01  0.000000000E+00  0.00000E+00  9.000E+00
     -14     1     5     5     0     0  4.486772186E+01  2.967640062E+01 -2.768744502E+01  6.050120520E+01  1.215700987E-06  0.00000E+00  9.000E+00
       5     1     4     4   514     0 -6.626228518E+00 -9.605042507E+00  2.582114055E+01  2.873077696E+01  4.750000000E+00  0.00000E+00  9.000E+00
      -5     1     3     3     0   511  2.039370438E+01 -2.869284082E+01 -3.006253769E+01  4.653494349E+01  4.750000000E+00  0.00000E+00  9.000E+00
      21     1     1     2   501   512 -1.625273890E+01  1.158463848E+01 -6.122468252E+02  6.125720614E+02  1.078959322E-05  0.00000E+00  9.000E+00
      21     1     3     3   511   501  1.337842583E+01 -1.502765776E+01 -1.445713412E+01  2.477542133E+01  2.920019320E-07  0.00000E+00  9.000E+00
      21     1     4     4   507   514  6.635447454E-01  5.980208237E-01  9.073742497E-01  1.273282594E+00  9.541398641E-08  0.00000E+00  9.000E+00
#rwgt            1          17   13.487362340947714                1      983990           0       11110           0
<weights>
0.14854E+02
</weights>
</event>
<event>
     15  10001 -1.35503E+01  8.49869E+01 -1.00000E+00  3.85007E-01
       2    -1     0     0   502     0  0.000000000E+00  0.000000000E+00  1.478585823E+02  1.478585823E+02  0.000000000E+00  0.00000E+00  9.000E+00
      21    -1     0     0   507   502  0.000000000E+00  0.000000000E+00 -1.106152791E+03  1.106152791E+03  0.000000000E+00  0.00000E+00  9.000E+00
      -6     2     1     2     0   501  7.551291795E+01  8.870318146E+00 -5.612977313E+02  5.930316395E+02  1.756431011E+02  0.00000E+00  9.000E+00
       6     2     1     2   507     0 -1.275808017E+02 -7.603951640E+01 -4.868935679E+02  5.372693767E+02  1.718550775E+02  0.00000E+00  9.000E+00
     -24     2     3     3     0     0 -2.364963682E+01 -3.349651536E+01 -2.194779277E+02  2.342349865E+02  7.081063690E+01  0.00000E+00  9.000E+00
      24     2     4     4     0     0 -5.904103440E+01 -8.121840118E+01 -1.273441932E+02  1.711636525E+02  5.475563850E+01  0.00000E+00  9.000E+00
     -11     1     6     6     0     0  3.973465766E+00 -3.730280590E+01 -3.946828095E+01  5.445211621E+01  0.000000000E+00  0.00000E+00  9.000E+00
      12     1     6     6     0     0 -6.301450016E+01 -4.391559527E+01 -8.787591228E+01  1.167115363E+02  2.861022949E-06  0.00000E+00  9.000E+00
      13     1     5     5     0     0 -1.901621587E+01 -3.099748172E+01 -3.769991159E+01  5.238075670E+01  0.000000000E+00  0.00000E+00  9.000E+00
     -14     1     5     5     0     0 -4.633420950E+00 -2.499033640E+00 -1.817780161E+02  1.818542298E+02  2.697398305E-06  0.00000E+00  9.000E+00
       5     1     4     4   511     0 -6.048265595E+01  3.681391685E+00 -3.165940139E+02  3.223756140E+02  4.750000000E+00  0.00000E+00  9.000E+00
      -5     1     3     3     0   512  9.895851637E+01  4.324599743E+01 -3.398906138E+02  3.566667858E+02  4.750000000E+00  0.00000E+00  9.000E+00
       2     1     1     2   501     0  5.206788379E+01  6.716919825E+01  8.989709018E+01  1.237103574E+02  0.000000000E+00  0.00000E+00  9.000E+00
      21     1     3     3   512   501  2.040383990E-01 -8.791639190E-01 -1.929189836E+00  2.129867199E+00  4.214684851E-08  0.00000E+00  9.000E+00
      21     1     4     4   507   511 -8.057111390E+00  1.497493092E+00 -4.295536073E+01  4.373011028E+01  8.259061849E-07  0.00000E+00  9.000E+00
#rwgt            1          17  -25.906566312776917                1     1000398           0       11110           0
<weights>
-.14284E+02
</weights>
</event>
<event>
     14  10001  1.35503E+01  3.23651E+02 -1.00000E+00  7.49073E-01
      21    -1     0     0   502   511  0.000000000E+00  0.000000000E+00  4.829324590E+02  4.829324590E+02  0.000000000E+00  0.00000E+00  9.000E+00
      21    -1     0     0   507   502  0.000000000E+00  0.000000000E+00 -5.063344547E+02  5.063344547E+02  0.000000000E+00  0.00000E+00  9.000E+00
      -6     2     1     2     0   501 -3.870859369E+01 -1.523662057E+02 -1.452807353E+02  2.753879760E+02  1.732576966E+02  0.00000E+00  9.000E+00
       6     2     1     2   507     0 -7.855185507E+01 -1.492954170E+02 -1.565309667E+02  2.869577365E+02  1.714155289E+02  0.00000E+00  9.000E+00
     -24     2     3     3     0     0  1.995703282E+01 -7.608840508E+01 -1.377959539E+02  1.787518386E+02  8.232111726E+01  0.00000E+00  9.000E+00
      24     2     4     4     0     0 -8.139768537E+01 -9.617566698E+01 -1.746589127E+02  2.304577183E+02  8.203463932E+01  0.00000E+00  9.000E+00
     -11     1     6     6     0     0  1.679250239E+01 -9.389114453E+00 -2.016820821E+01  2.787293004E+01  0.000000000E+00  0.00000E+00  9.000E+00
      12     1     6     6     0     0 -9.819018776E+01 -8.678655253E+01 -1.544907045E+02  2.025847883E+02  3.303624740E-06  0.00000E+00  9.000E+00
      13     1     5     5     0     0 -1.031104770E+00 -4.671500292E+01 -1.251534329E+01  4.837342755E+01  0.000000000E+00  0.00000E+00  9.000E+00
     -14     1     5     5     0     0  2.098813759E+01 -2.937340215E+01 -1.252806106E+02  1.303784111E+02  3.814697266E-06  0.00000E+00  9.000E+00
       5     1     4     4   513     0  3.366643381E+00 -4.692194234E+01  1.639266615E+01  5.004283129E+01  4.750000000E+00  0.00000E+00  9.000E+00
      -5     1     3     3     0   501 -5.866562651E+01 -7.627780064E+01 -7.484781380E+00  9.663613742E+01  4.750000000E+00  0.00000E+00  9.000E+00
      21     1     1     2   501   511  1.172604488E+02  3.016616227E+02  2.784097063E+02  4.269212012E+02  8.529922400E-06  0.00000E+00  9.000E+00
      21     1     4     4   507   513 -5.208130793E-01 -6.197807668E+00  1.735279868E+00  6.457186877E+00  9.657056180E-08  0.00000E+00  9.000E+00
#rwgt            1          17   14.990304110487171                1     1011147           0         110           0
<weights>
0.17343E+02
</weights>
</event>
<event>
     14  10001  1.35503E+01  1.04976E+01 -1.00000E+00  1.79891E-01
      21    -1     0     0   502   511  0.000000000E+00  0.000000000E+00  6.880651371E+02  6.880651371E+02  0.000000000E+00  0.00000E+00  9.000E+00
      21    -1     0     0   507   502  0.000000000E+00  0.000000000E+00 -5.090937410E+01  5.090937410E+01  0.000000000E+00  0.00000E+00  9.000E+00
      -6     2     1     2     0   501  2.922489209E+01  1.480900963E+01  3.091645753E+02  3.553048300E+02  1.720040306E+02  0.00000E+00  9.000E+00
       6     2     1     2   507     0 -3.785731212E+01 -8.835727271E+00  3.420105041E+02  3.661556864E+02  1.248501326E+02  0.00000E+00  9.000E+00
     -24     2     3     3     0     0  7.794305672E+01 -9.557700542E+00  1.894485095E+02  2.203279192E+02  8.054305992E+01  0.00000E+00  9.000E+00
      24     2     4     4     0     0 -4.364566533E+01 -2.570517795E+01  3.320488629E+02  3.451823654E+02  7.955323848E+01  0.00000E+00  9.000E+00
     -11     1     6     6     0     0 -1.563123351E+01  7.622766872E+00  2.628611232E+02  2.634357837E+02  0.000000000E+00  0.00000E+00  9.000E+00
      12     1     6     6     0     0 -2.801443182E+01 -3.332794482E+01  6.918773968E+01  8.174658169E+01  2.132480600E-06  0.00000E+00  9.000E+00
      13     1     5     5     0     0  1.526661842E+01  4.452523910E+00  1.355646234E+02  1.364941821E+02  0.000000000E+00  0.00000E+00  9.000E+00
     -14     1     5     5     0     0  6.267643830E+01 -1.401022445E+01  5.388388602E+01  8.383373712E+01  2.132480600E-06  0.00000E+00  9.000E+00
       5     1     4     4   507     0  5.788353215E+00  1.686945068E+01  9.961641248E+00  2.097332104E+01  4.750000000E+00  0.00000E+00  9.000E+00
      -5     1     3     3     0   512 -4.364653764E+01  2.030845288E+01  1.189826250E+02  1.284401848E+02  4.750000000E+00  0.00000E+00  9.000E+00
      21     1     3     3   512   501 -5.071626989E+00  4.058257293E+00  7.334408183E-01  6.536726092E+00  4.410340961E-07  0.00000E+00  9.000E+00
      21     1     1     2   501   511  8.632420027E+00 -5.973282355E+00 -1.401931644E+01  1.751399472E+01  3.371747881E-07  0.00000E+00  9.000E+00
#rwgt            1          17   31.359759974934590                1     1023045           0        1101           0
<weights>
0.92032E+01
</weights>
</event>
<event>
     15  10001  1.35503E+01  2.02173E+01 -1.00000E+00  6.19255E-01
      21    -1     0     0   502   501  0.000000000E+00  0.000000000E+00  8.063665661E+01  8.063665661E+01  0.000000000E+00  0.00000E+00  9.000E+00
      21    -1     0     0   507   511  0.000000000E+00  0.000000000E+00 -7.294160969E+02  7.294160969E+02  0.000000000E+00  0.00000E+00  9.000E+00
      -6     2     1     2     0   501  5.203119697E+01  1.518690796E+00 -1.938650564E+02  2.650806576E+02  1.731315773E+02  0.00000E+00  9.000E+00
       6     2     1     2   507     0 -3.833981808E+01  1.335691025E+01 -4.804252130E+02  5.124215235E+02  1.735485053E+02  0.00000E+00  9.000E+00
     -24     2     3     3     0     0  5.265379409E+00 -4.284838302E+01 -1.725851595E+02  1.962007162E+02  8.273678510E+01  0.00000E+00  9.000E+00
      24     2     4     4     0     0 -2.407709039E+01  7.228636564E+01 -2.462655553E+02  2.702855117E+02  8.125582520E+01  0.00000E+00  9.000E+00
     -11     1     6     6     0     0 -3.667565638E+00  1.418027136E+01 -1.769804267E+02  1.775854796E+02  0.000000000E+00  0.00000E+00  9.000E+00
      12     1     6     6     0     0 -2.040952475E+01  5.810609428E+01 -6.928512867E+01  9.270003208E+01  1.348699152E-06  0.00000E+00  9.000E+00
      13     1     5     5     0     0  3.790302377E+01  1.807947296E+00 -6.666370702E+01  7.670696003E+01  0.000000000E+00  0.00000E+00  9.000E+00
     -14     1     5     5     0     0 -3.263764436E+01 -4.465633032E+01 -1.059214524E+02  1.194937561E+02  1.348699152E-06  0.00000E+00  9.000E+00
       5     1     4     4   512     0 -6.755197689E+00 -4.417871721E+01 -1.781678364E+02  1.837491012E+02  4.750000000E+00  0.00000E+00  9.000E+00
      -5     1     3     3     0   513  4.695771154E+01  4.404967602E+01 -2.005936465E+01  6.760429898E+01  4.750000000E+00  0.00000E+00  9.000E+00
      21     1     1     2   502   511 -1.369137889E+01 -1.487560104E+01  2.551082913E+01  3.255057242E+01  4.768371582E-07  0.00000E+00  9.000E+00
      21     1     4     4   507   512 -7.507530010E+00 -1.475073818E+01 -5.599182124E+01  5.838691060E+01  1.348699152E-06  0.00000E+00  9.000E+00
      21     1     3     3   513   501 -1.918939819E-01  3.173977993E-01 -1.220532304E+00  1.275642492E+00  2.107342426E-08  0.00000E+00  9.000E+00
#rwgt            1          17   17.656589573601217                1     1034841           0       11011           0
<weights>
0.12720E+02
</weights>
</event>
<event>
     15  10001  1.35503E+01  1.94740E+01 -1.00000E+00  1.51462E-01
      21    -1     0     0   507   511  0.000000000E+00  0.000000000E+00  1.606902498E+02  1.606902498E+02  0.000000000E+00  0.00000E+00  9.000E+00
      21    -1     0     0   501   502  0.000000000E+00  0.000000000E+00 -3.984568233E+02  3.984568233E+02  0.000000000E+00  0.00000E+00  9.000E+00
      -6     2     1     2     0   502  6.464535075E+01  4.713796268E+01 -2.854573736E+02  3.426886033E+02  1.718969396E+02  0.00000E+00  9.000E+00
       6     2     1     2   507     0 -4.704076612E+01 -3.881246224E+01  3.821703517E+01  1.948023487E+02  1.810198121E+02  0.00000E+00  9.000E+00
     -24     2     3     3     0     0  4.388421457E+01 -6.914035649E+00 -6.695677347E+01  1.121678189E+02  7.826098583E+01  0.00000E+00  9.000E+00
      24     2     4     4     0     0 -2.185553571E+01  4.541470228E+01  2.583091158E+01  1.005031311E+02  8.302700609E+01  0.00000E+00  9.000E+00
     -11     1     6     6     0     0 -4.289547633E+01  3.795269477E+01 -1.014220312E+01  5.816608302E+01  0.000000000E+00  0.00000E+00  9.000E+00
      12     1     6     6     0     0  2.103994062E+01  7.462007505E+00  3.597311470E+01  4.233704806E+01  8.259061849E-07  0.00000E+00  9.000E+00
      13     1     5     5     0     0 -2.056932861E+01 -1.175131105E+01 -8.960159481E+00  2.532735772E+01  0.000000000E+00  0.00000E+00  9.000E+00
     -14     1     5     5     0     0  6.445354318E+01  4.837275398E+00 -5.799661399E+01  8.684046117E+01  6.743495762E-07  0.00000E+00  9.000E+00
       5     1     4     4   514     0 -2.284583481E+01 -8.030318226E+01  2.790136688E+00  8.367126516E+01  4.750000000E+00  0.00000E+00  9.000E+00
      -5     1     3     3     0   512  1.587222183E+01  2.276142115E+01 -1.718182920E+02  1.741094417E+02  4.750000000E+00  0.00000E+00  9.000E+00
      21     1     3     3   512   502  4.888914352E+00  3.129057718E+01 -4.668230813E+01  5.641134280E+01  9.536743164E-07  0.00000E+00  9.000E+00
      21     1     1     2   501   511 -1.760458463E+01 -8.325500444E+00  9.473764965E+00  2.165612108E+01  1.192092896E-07  0.00000E+00  9.000E+00
      21     1     4     4   507   514 -2.339395599E+00 -3.923982252E+00  9.595986895E+00  1.062795244E+01  2.384185791E-07  0.00000E+00  9.000E+00
#rwgt            1          17   9.6142523789491925                1     1042331           0      110110           0
<weights>
0.13334E+02
</weights>
</event>
<event>
     15  10001 -1.35503E+01  4.17833E+00 -1.00000E+00  3.81439E-01
      21    -1     0     0   507   501  0.000000000E+00  0.000000000E+00  8.354724792E+02  8.354724792E+02  0.000000000E+00  0.00000E+00  9.000E+00
      21    -1     0     0   511   502  0.000000000E+00  0.000000000E+00 -5.130468692E+01  5.130468692E+01  0.000000000E+00  0.00000E+00  9.000E+00
      -6     2     1     2     0   502 -9.654228595E+00 -4.264167837E+01  1.868602540E+02  2.579065956E+02  1.723007273E+02  0.00000E+00  9.000E+00
       6     2     1     2   507     0  8.655429014E+00  3.858447850E+01  5.414241800E+02  5.728312254E+02  1.828436263E+02  0.00000E+00  9.000E+00
     -24     2     3     3     0     0 -6.180167679E+01 -4.452361984E+01  7.464687496E+01  1.331746874E+02  7.975927183E+01  0.00000E+00  9.000E+00
      24     2     4     4     0     0  5.994677648E+01  2.191966014E+01  4.801045919E+02  4.909382108E+02  8.028586490E+01  0.00000E+00  9.000E+00
     -11     1     6     6     0     0  7.973819505E+01  1.320010719E+01  3.689059482E+02  3.776559561E+02  0.000000000E+00  0.00000E+00  9.000E+00
      12     1     6     6     0     0 -1.979141857E+01  8.719552949E+00  1.111986437E+02  1.132822546E+02  1.348699152E-06  0.00000E+00  9.000E+00
      13     1     5     5     0     0 -3.148274484E+01 -6.221080195E+01  6.811135359E+01  9.747052677E+01  0.000000000E+00  0.00000E+00  9.000E+00
     -14     1     5     5     0     0 -3.031893196E+01  1.768718211E+01  6.535521366E+00  3.570416062E+01  1.022006762E-06  0.00000E+00  9.000E+00
       5     1     4     4   512     0 -3.732726467E+01  1.175760782E+01  4.288258986E+01  5.824985015E+01  4.750000000E+00  0.00000E+00  9.000E+00
      -5     1     3     3     0   513  5.315179633E+01  2.151288802E+00  1.104548498E+02  1.226889475E+02  4.750000000E+00  0.00000E+00  9.000E+00
      21     1     1     2   511   501  9.987995807E-01  4.057199872E+00  5.588335831E+01  5.603934517E+01  9.536743164E-07  0.00000E+00  9.000E+00
      21     1     4     4   507   512 -1.396408279E+01  4.907210544E+00  1.843699819E+01  2.364316446E+01  4.768371582E-07  0.00000E+00  9.000E+00
      21     1     3     3   513   502 -1.004348134E+00 -2.693473322E-01  1.758529236E+00  2.042960654E+00  4.214684851E-08  0.00000E+00  9.000E+00
#rwgt            1          17  -1.1695375408011657                1     1051277           0       11011           0
<weights>
-.91685E+01
</weights>
</event>
<event>
     15  10001  1.35503E+01  3.81781E+01 -1.00000E+00  4.91665E-01
      21    -1     0     0   502   501  0.000000000E+00  0.000000000E+00  2.827672338E+02  2.827672338E+02  0.000000000E+00  0.00000E+00  9.000E+00
      21    -1     0     0   507   512  0.000000000E+00  0.000000000E+00 -4.985825073E+02  4.985825073E+02  0.000000000E+00  0.00000E+00  9.000E+00
      -6     2     1     2     0   501  8.854633140E+01 -1.112120517E+01 -4.297709214E+01  1.981092434E+02  1.715695423E+02  0.00000E+00  9.000E+00
       6     2     1     2   507     0 -7.032958236E+01 -2.243048858E+01 -3.526646364E+02  3.994060069E+02  1.723468468E+02  0.00000E+00  9.000E+00
     -24     2     3     3     0     0  3.344625807E+01 -7.049746713E+01 -2.332905906E+01  1.137877798E+02  7.946614862E+01  0.00000E+00  9.000E+00
      24     2     4     4     0     0 -4.958674617E+01 -7.956407548E+01 -2.012956414E+02  2.359013078E+02  7.962539969E+01  0.00000E+00  9.000E+00
     -11     1     6     6     0     0 -6.314164167E+01 -8.245071687E+01 -1.477842405E+02  1.806243875E+02  0.000000000E+00  0.00000E+00  9.000E+00
      12     1     6     6     0     0  1.355489550E+01  2.886641384E+00 -5.351140094E+01  5.527692033E+01  0.000000000E+00  0.00000E+00  9.000E+00
      13     1     5     5     0     0  2.897553908E+01 -2.883100161E+01  2.647402626E+01  4.869992387E+01  0.000000000E+00  0.00000E+00  9.000E+00
     -14     1     5     5     0     0  4.470718996E+00 -4.166646552E+01 -4.980308532E+01  6.508785589E+01  6.743495762E-07  0.00000E+00  9.000E+00
       5     1     4     4   514     0 -2.010109034E+01  5.704910351E+01 -1.510563532E+02  1.627858666E+02  4.750000000E+00  0.00000E+00  9.000E+00
      -5     1     3     3     0   511  5.544024288E+01  5.943097295E+01 -1.902153204E+01  8.360647258E+01  4.750000000E+00  0.00000E+00  9.000E+00
      21     1     1     2   502   512 -1.821674904E+01  3.355169375E+01  1.798264551E+02  1.838344909E+02  5.722045898E-06  0.00000E+00  9.000E+00
      21     1     3     3   511   501 -3.401695517E-01 -5.471098868E-02 -6.265010320E-01  7.149910204E-01  1.666000469E-08  0.00000E+00  9.000E+00
      21     1     4     4   507   514 -6.417458449E-01  8.448339260E-02 -3.126418357E-01  7.188324495E-01  1.290478414E-08  0.00000E+00  9.000E+00
#rwgt            1          17   5.4997724582493728                1     1061010           0       11110           0
<weights>
0.19208E+02
</weights>
</event>
<event>
     15  10001  1.35503E+01  8.12619E+01 -1.00000E+00  1.40864E-01
      21    -1     0     0   507   501  0.000000000E+00  0.000000000E+00  4.708594274E+02  4.708594274E+02  0.000000000E+00  0.00000E+00  9.000E+00
      21    -1     0     0   501   511  0.000000000E+00  0.000000000E+00 -3.316087504E+02  3.316087504E+02  0.000000000E+00  0.00000E+00  9.000E+00
      -6     2     1     2     0   502 -8.671407890E+01 -5.956153694E+01 -1.706962171E+02  2.683880363E+02  1.784041236E+02  0.00000E+00  9.000E+00
       6     2     1     2   507     0  1.586926829E+02  2.184447061E+01  2.511496109E+01  2.378830338E+02  1.740604148E+02  0.00000E+00  9.000E+00
     -24     2     3     3     0     0 -2.535192410E+01 -8.655186363E+00 -1.302164093E+02  1.541410589E+02  7.800974606E+01  0.00000E+00  9.000E+00
      24     2     4     4     0     0  4.020527456E+01 -1.905707717E+01 -2.693074270E+01  9.493048257E+01  7.941596393E+01  0.00000E+00  9.000E+00
     -11     1     6     6     0     0  7.349350239E+00  2.907730949E+00 -4.902107377E+01  4.965413902E+01  0.000000000E+00  0.00000E+00  9.000E+00
      12     1     6     6     0     0  3.285592432E+01 -2.196480811E+01  2.209033107E+01  4.527634355E+01  6.307962682E-07  0.00000E+00  9.000E+00
      13     1     5     5     0     0 -2.878058812E+01 -3.584131179E+01 -1.124546033E+02  1.214864588E+02  0.000000000E+00  0.00000E+00  9.000E+00
     -14     1     5     5     0     0  3.428664021E+00  2.718612542E+01 -1.776180606E+01  3.265460009E+01  6.307962682E-07  0.00000E+00  9.000E+00
       5     1     4     4   513     0  9.329873451E+01  5.024106052E+01  4.466464304E+01  1.150926186E+02  4.750000000E+00  0.00000E+00  9.000E+00
      -5     1     3     3     0   512 -5.872983704E+01 -6.773485768E+01 -3.493787934E+01  9.633495013E+01  4.750000000E+00  0.00000E+00  9.000E+00
      21     1     1     2   502   511 -7.197860401E+01  3.771706633E+01  2.848319330E+02  2.961971077E+02  6.607249480E-06  0.00000E+00  9.000E+00
      21     1     3     3   512   502 -2.632317752E+00  1.682850710E+01 -5.541928472E+00  1.791202722E+01  4.693274423E-07  0.00000E+00  9.000E+00
      21     1     4     4   507   513  2.518867383E+01 -9.339512743E+00  7.381060744E+00  2.785993262E+01  5.057621821E-07  0.00000E+00  9.000E+00
#rwgt            1          17   7.5926726176575636                1     1071745           0       11110           0
<weights>
0.16799E+02
</weights>
</event>
<event>
     14  10001  1.35503E+01  1.53291E+01 -1.00000E+00  1.62836E-01
      21    -1     0     0   511   501  0.000000000E+00  0.000000000E+00  1.042961979E+02  1.042961979E+02  0.000000000E+00  0.00000E+00  9.000E+00
      21    -1     0     0   507   502  0.000000000E+00  0.000000000E+00 -5.130112211E+02  5.130112211E+02  0.000000000E+00  0.00000E+00  9.000E+00
      -6     2     1     2     0   501 -1.242224729E+02  4.656310950E+01 -1.236384889E+02  2.503619560E+02  1.726131141E+02  0.00000E+00  9.000E+00
       6     2     1     2   507     0  1.228692028E+02 -3.129382516E+01 -2.546565805E+02  3.328814648E+02  1.728697518E+02  0.00000E+00  9.000E+00
     -24     2     3     3     0     0 -2.553570311E+01  5.316478503E+01 -1.081832884E+02  1.470062941E+02  8.017892558E+01  0.00000E+00  9.000E+00
      24     2     4     4     0     0  2.004007967E+01 -4.159236765E+01 -5.184886165E+01  1.052119194E+02  7.905513073E+01  0.00000E+00  9.000E+00
     -11     1     6     6     0     0 -4.547177707E+00 -1.398101169E+01 -6.448544992E+01  6.614014487E+01  0.000000000E+00  0.00000E+00  9.000E+00
      12     1     6     6     0     0  2.458725738E+01 -2.761135596E+01  1.263658827E+01  3.907177455E+01  3.769728732E-07  0.00000E+00  9.000E+00
      13     1     5     5     0     0 -3.843472441E+01  4.184879814E+01 -2.500924364E+01  6.208069115E+01  0.000000000E+00  0.00000E+00  9.000E+00
     -14     1     5     5     0     0  1.289902130E+01  1.131598689E+01 -8.317404476E+01  8.492560292E+01  1.651812370E-06  0.00000E+00  9.000E+00
       5     1     4     4   507     0  1.028291232E+02  1.029854249E+01 -2.028077189E+02  2.276695453E+02  4.750000000E+00  0.00000E+00  9.000E+00
      -5     1     3     3     0   512 -5.720434346E+01 -1.349075779E+01 -1.670715624E+01  6.128645059E+01  4.750000000E+00  0.00000E+00  9.000E+00
      21     1     3     3   512   501 -4.148242636E+01  6.889082270E+00  1.251955767E+00  4.206921136E+01  4.006722468E-07  0.00000E+00  9.000E+00
      21     1     1     2   511   502  1.353270101E+00 -1.526928434E+01 -3.041995377E+01  3.406399817E+01  5.840038640E-07  0.00000E+00  9.000E+00
#rwgt            1          17   12.865185297691921                1     1073555           0        1101           0
<weights>
0.19531E+02
</weights>
</event>
<event>
     14  10001  1.35503E+01  9.43651E+01 -1.00000E+00  5.14949E-01
      21    -1     0     0   511   501  0.000000000E+00  0.000000000E+00  1.740122281E+03  1.740122281E+03  0.000000000E+00  0.00000E+00  9.000E+00
      21    -1     0     0   501   502  0.000000000E+00  0.000000000E+00 -8.326031455E+01  8.326031455E+01  0.000000000E+00  0.00000E+00  9.000E+00
      -6     2     1     2     0   502 -1.919037305E+02 -6.029289794E+01  2.390218797E+02  3.571120188E+02  1.730180906E+02  0.00000E+00  9.000E+00
       6     2     1     2   507     0  1.341536055E+02 -1.433753247E+01  5.360557467E+02  5.794513164E+02  1.737967487E+02  0.00000E+00  9.000E+00
     -24     2     3     3     0     0 -6.538121538E+01 -6.993228882E+01  1.875976799E+02  2.198698802E+02  6.312405549E+01  0.00000E+00  9.000E+00
      24     2     4     4     0     0  5.875539226E+01 -2.277777949E+01  1.257954256E+02  1.622077163E+02  8.072069594E+01  0.00000E+00  9.000E+00
     -11     1     6     6     0     0  6.534469933E+01 -3.156709274E+01  1.312245407E+02  1.499542969E+02  0.000000000E+00  0.00000E+00  9.000E+00
      12     1     6     6     0     0 -6.589307063E+00  8.789313244E+00 -5.429115114E+00  1.225341935E+01  4.986882368E-07  0.00000E+00  9.000E+00
      13     1     5     5     0     0 -5.729300609E+01 -3.301218673E+01  6.975657273E+01  9.611593238E+01  0.000000000E+00  0.00000E+00  9.000E+00
     -14     1     5     5     0     0 -8.088209299E+00 -3.692010209E+01  1.178411071E+02  1.237539478E+02  3.015782986E-06  0.00000E+00  9.000E+00
       5     1     4     4   507     0  7.539821326E+01  8.440247024E+00  4.102603210E+02  4.172436001E+02  4.750000000E+00  0.00000E+00  9.000E+00
      -5     1     3     3     0   512 -1.252679854E+02  9.574620026E+00  5.172941809E+01  1.359493903E+02  4.750000000E+00  0.00000E+00  9.000E+00
      21     1     1     2   511   507  5.775012501E+01  7.463043041E+01  8.817843402E+02  8.868192605E+02  1.078959322E-05  0.00000E+00  9.000E+00
      21     1     3     3   512   502 -1.254529729E+00  6.477086298E-02 -3.052182449E-01  1.292748345E+00  5.600339315E-08  0.00000E+00  9.000E+00
#rwgt            1          17   62.447342838960715                1     1083568           0         111           0
<weights>
0.13037E+02
</weights>
</event>
<event>
     13  10001  1.35503E+01  2.19326E+01 -1.00000E+00  1.63130E-01
      21    -1     0     0   512   501  0.000000000E+00  0.000000000E+00  6.741670523E+01  6.741670523E+01  0.000000000E+00  0.00000E+00  9.000E+00
      21    -1     0     0   501   502  0.000000000E+00  0.000000000E+00 -9.964087775E+02  9.964087775E+02  0.000000000E+00  0.00000E+00  9.000E+00
      -6     2     1     2     0   502  5.364333411E+01  6.736278057E+01 -4.551528845E+02  4.943677798E+02  1.726846894E+02  0.00000E+00  9.000E+00
       6     2     1     2   507     0 -7.142012604E+01 -5.451661280E+01 -4.995427676E+02  5.356684683E+02  1.712449585E+02  0.00000E+00  9.000E+00
     -24     2     3     3     0     0  4.893694701E+01  6.484901855E+01 -4.666385015E+02  4.808418427E+02  8.280801024E+01  0.00000E+00  9.000E+00
      24     2     4     4     0     0 -8.336709474E+01 -1.245018710E+01 -4.655105550E+02  4.800531087E+02  8.152196448E+01  0.00000E+00  9.000E+00
     -11     1     6     6     0     0 -1.618198733E+01 -2.897994596E+01 -5.899136675E+01  6.768807379E+01  0.000000000E+00  0.00000E+00  9.000E+00
      12     1     6     6     0     0 -6.718510741E+01  1.652975886E+01 -4.065191883E+02  4.123650349E+02  0.000000000E+00  0.00000E+00  9.000E+00
      13     1     5     5     0     0  4.867338612E+01  8.985248134E+00 -3.221429552E+02  3.259231762E+02  0.000000000E+00  0.00000E+00  9.000E+00
     -14     1     5     5     0     0  2.635608906E-01  5.586377042E+01 -1.444955463E+02  1.549186664E+02  1.907348633E-06  0.00000E+00  9.000E+00
       5     1     4     4   507     0  1.194696870E+01 -4.206642570E+01 -3.403221257E+01  5.561535961E+01  4.750000000E+00  0.00000E+00  9.000E+00
      -5     1     3     3     0   502  4.706387105E+00  2.513762016E+00  1.148561700E+01  1.352593719E+01  4.750000000E+00  0.00000E+00  9.000E+00
      21     1     1     2   512   507  1.777679193E+01 -1.284616776E+01  2.570357984E+01  3.378923459E+01  1.348699152E-06  0.00000E+00  9.000E+00
#rwgt            2         113   27.509573611400949                1     1103561           0           1           0
<weights>
0.13550E+02
</weights>
</event>
<event>
     13  10001  1.35503E+01  1.12070E+01 -1.00000E+00  7.50911E-01
      21    -1     0     0   511   501  0.000000000E+00  0.000000000E+00  1.080887185E+02  1.080887185E+02  0.000000000E+00  0.00000E+00  9.000E+00
      21    -1     0     0   507   502  0.000000000E+00  0.000000000E+00 -3.945789710E+02  3.945789710E+02  0.000000000E+00  0.00000E+00  9.000E+00
      -6     2     1     2     0   501  2.687203911E+00  2.512165220E+01 -1.650493893E+01  1.747856245E+02  1.721606315E+02  0.00000E+00  9.000E+00
       6     2     1     2   507     0 -1.315602126E+01 -2.112166322E+01 -2.454401662E+02  3.008994724E+02  1.722800388E+02  0.00000E+00  9.000E+00
     -24     2     3     3     0     0  2.762233896E+01  2.667004933E+01 -7.255026677E+01  1.132405210E+02  7.801018677E+01  0.00000E+00  9.000E+00
      24     2     4     4     0     0 -1.727071994E+01  4.871607237E+01 -1.450184678E+02  1.784195962E+02  9.017573313E+01  0.00000E+00  9.000E+00
     -11     1     6     6     0     0  2.097852559E+01 -2.200584660E+00 -9.535683725E+01  9.766200653E+01  0.000000000E+00  0.00000E+00  9.000E+00
      12     1     6     6     0     0 -3.824924553E+01  5.091665703E+01 -4.966163052E+01  8.075758969E+01  1.168007728E-06  0.00000E+00  9.000E+00
      13     1     5     5     0     0 -1.569208772E+01  9.849422700E-01 -5.904648710E+01  6.110400451E+01  0.000000000E+00  0.00000E+00  9.000E+00
     -14     1     5     5     0     0  4.331442668E+01  2.568510706E+01 -1.350377967E+01  5.213651645E+01  1.011524364E-06  0.00000E+00  9.000E+00
       5     1     4     4   507     0  4.114698673E+00 -6.983773558E+01 -1.004216984E+02  1.224798762E+02  4.750000000E+00  0.00000E+00  9.000E+00
      -5     1     3     3     0   501 -2.493513505E+01 -1.548397126E+00  5.604532784E+01  6.154510351E+01  4.750000000E+00  0.00000E+00  9.000E+00
      21     1     1     2   511   502  1.046881735E+01 -3.999988983E+00 -2.454514732E+01  2.698259264E+01  3.371747881E-07  0.00000E+00  9.000E+00
#rwgt            1          17   39.542813199256862                1     1105008           0           1           0
<weights>
0.10864E+02
</weights>
</event>
<event>
     15  10001 -1.35503E+01  1.64606E+01 -1.00000E+00  5.85549E-01
      21    -1     0     0   507   512  0.000000000E+00  0.000000000E+00  2.938854201E+02  2.938854201E+02  0.000000000E+00  0.00000E+00  9.000E+00
      21    -1     0     0   501   502  0.000000000E+00  0.000000000E+00 -1.247160308E+03  1.247160308E+03  0.000000000E+00  0.00000E+00  9.000E+00
      -6     2     1     2     0   502 -2.628653750E+02 -1.091624007E+02 -1.112654115E+03  1.160870449E+03  1.691342211E+02  0.00000E+00  9.000E+00
       6     2     1     2   507     0  2.468221216E+02  1.054793210E+02  1.261439205E+02  3.430870512E+02  1.724801124E+02  0.00000E+00  9.000E+00
     -24     2     3     3     0     0 -1.738455035E+02 -1.063570394E+02 -5.648824958E+02  6.058510785E+02  8.018239407E+01  0.00000E+00  9.000E+00
      24     2     4     4     0     0  7.054095854E+01  8.126669919E+01  2.045637045E+01  1.360154467E+02  8.063147914E+01  0.00000E+00  9.000E+00
     -11     1     6     6     0     0  8.520208066E+00  4.241591575E+01 -2.489871642E+01  4.991642950E+01  0.000000000E+00  0.00000E+00  9.000E+00
      12     1     6     6     0     0  6.202075047E+01  3.885078344E+01  4.535508687E+01  8.609901723E+01  3.015782986E-06  0.00000E+00  9.000E+00
      13     1     5     5     0     0 -5.464466352E+01  3.163675730E+00 -1.068232104E+02  1.200301895E+02  0.000000000E+00  0.00000E+00  9.000E+00
     -14     1     5     5     0     0 -1.192008399E+02 -1.095207151E+02 -4.580592854E+02  4.858208890E+02  5.394796609E-06  0.00000E+00  9.000E+00
       5     1     4     4   511     0  1.608519280E+02  2.128245978E+01  9.760993536E+01  1.894110552E+02  4.750000000E+00  0.00000E+00  9.000E+00
      -5     1     3     3     0   514 -8.769271421E+01 -2.387836304E+00 -5.341161514E+02  5.412932103E+02  4.750000000E+00  0.00000E+00  9.000E+00
      21     1     1     2   501   512  1.604325338E+01  3.683079655E+00  3.323530649E+01  3.708822795E+01  1.066240300E-06  0.00000E+00  9.000E+00
      21     1     4     4   507   511  1.542923501E+01  2.930162030E+00  8.077614732E+00  1.766054932E+01  4.460403188E-07  0.00000E+00  9.000E+00
      21     1     3     3   514   502 -1.327157292E+00 -4.175249954E-01 -1.365546801E+01  1.372616043E+01  2.384185791E-07  0.00000E+00  9.000E+00
#rwgt            1          17  -113.85683706922455                1     1117931           0       11011           0
<weights>
-.15997E+02
</weights>
</event>
<event>
     14  10001  1.35503E+01  3.17748E+01 -1.00000E+00  7.48532E-01
      21    -1     0     0   507   512  0.000000000E+00  0.000000000E+00  6.712465794E+02  6.712465794E+02  0.000000000E+00  0.00000E+00  9.000E+00
      21    -1     0     0   501   502  0.000000000E+00  0.000000000E+00 -1.198222284E+02  1.198222284E+02  0.000000000E+00  0.00000E+00  9.000E+00
      -6     2     1     2     0   502  1.615904182E+02  1.097563004E+01  9.167635418E+01  2.541848069E+02  1.731283755E+02  0.00000E+00  9.000E+00
       6     2     1     2   507     0 -1.581649384E+02 -4.256520742E+01  3.546867899E+02  4.271229308E+02  1.726364230E+02  0.00000E+00  9.000E+00
     -24     2     3     3     0     0  1.637451870E+02  3.990635077E+01  1.116466218E+02  2.186460433E+02  8.328337764E+01  0.00000E+00  9.000E+00
      24     2     4     4     0     0 -1.142365161E+02  1.606364246E+01  2.629087691E+02  2.976910296E+02  7.868231060E+01  0.00000E+00  9.000E+00
     -11     1     6     6     0     0 -1.209913017E+02  3.699608495E-01  2.430042794E+02  2.714592267E+02  0.000000000E+00  0.00000E+00  9.000E+00
      12     1     6     6     0     0  6.754785607E+00  1.569368161E+01  1.990448969E+01  2.623180285E+01  2.384185791E-07  0.00000E+00  9.000E+00
      13     1     5     5     0     0  5.437385813E+01  1.820123123E+01  8.740933528E+01  1.045379986E+02  0.000000000E+00  0.00000E+00  9.000E+00
     -14     1     5     5     0     0  1.093713289E+02  2.170511953E+01  2.423728648E+01  1.141080446E+02  3.814697266E-06  0.00000E+00  9.000E+00
       5     1     4     4   511     0 -5.164370132E+00 -4.377408661E+01  6.918188774E+01  8.216773983E+01  4.750000000E+00  0.00000E+00  9.000E+00
      -5     1     3     3     0   502 -2.154768772E+00 -2.893072073E+01 -1.997026757E+01  3.553876359E+01  4.750000000E+00  0.00000E+00  9.000E+00
      21     1     4     4   507   511 -3.876405213E+01 -1.485476327E+01  2.259613306E+01  4.726416146E+01  1.545128989E-06  0.00000E+00  9.000E+00
      21     1     1     2   501   512 -3.425479827E+00  3.158957738E+01  1.050612069E+02  1.097610701E+02  1.907348633E-06  0.00000E+00  9.000E+00
#rwgt            1          17   42.722360615610093                1     1128479           0        1001           0
<weights>
0.13309E+02
</weights>
</event>
<event>
     15  10001  1.35503E+01  3.37657E+01 -1.00000E+00  2.02701E-01
      21    -1     0     0   511   501  0.000000000E+00  0.000000000E+00  4.565708475E+02  4.565708475E+02  0.000000000E+00  0.00000E+00  9.000E+00
      21    -1     0     0   501   502  0.000000000E+00  0.000000000E+00 -1.420444208E+02  1.420444208E+02  0.000000000E+00  0.00000E+00  9.000E+00
      -6     2     1     2     0   502 -5.505817111E+01 -1.124984897E+02  1.028688764E+02  2.390551666E+02  1.757215255E+02  0.00000E+00  9.000E+00
       6     2     1     2   507     0  3.950614034E+01  8.252750762E+01  2.444558349E+02  3.124872550E+02  1.718083371E+02  0.00000E+00  9.000E+00
     -24     2     3     3     0     0 -5.129677896E+01 -1.345408040E+02  1.233592030E+02  2.062418817E+02  8.115191528E+01  0.00000E+00  9.000E+00
      24     2     4     4     0     0  2.290123031E+01 -1.127414951E+01  1.043304240E+02  1.351375973E+02  8.201073119E+01  0.00000E+00  9.000E+00
     -11     1     6     6     0     0 -8.826673041E+00  3.130380340E+01  3.453363788E+01  4.743849080E+01  0.000000000E+00  0.00000E+00  9.000E+00
      12     1     6     6     0     0  3.172790335E+01 -4.257795291E+01  6.979678614E+01  8.769910649E+01  2.336015456E-06  0.00000E+00  9.000E+00
      13     1     5     5     0     0 -5.658980667E+01 -1.261870856E+02  7.588186050E+01  1.577455025E+02  0.000000000E+00  0.00000E+00  9.000E+00
     -14     1     5     5     0     0  5.293027711E+00 -8.353718348E+00  4.747734246E+01  4.849637924E+01  1.168007728E-06  0.00000E+00  9.000E+00
       5     1     4     4   512     0  8.217820118E+00  1.230382050E+01  6.279731421E+01  6.469143481E+01  4.750000000E+00  0.00000E+00  9.000E+00
      -5     1     3     3     0   513 -2.462296416E+00  1.059449955E+01 -1.707801988E+01  2.079729760E+01  4.750000000E+00  0.00000E+00  9.000E+00
      21     1     4     4   507   512  8.387089916E+00  8.149783663E+01  7.732809666E+01  1.126582229E+02  1.651812370E-06  0.00000E+00  9.000E+00
      21     1     1     2   511   507  1.555203077E+01  2.997098207E+01 -3.279828458E+01  4.707284673E+01  1.168007728E-06  0.00000E+00  9.000E+00
      21     1     3     3   513   502 -1.299095735E+00  1.144781475E+01 -3.412306690E+00  1.201598723E+01  1.519626234E-07  0.00000E+00  9.000E+00
#rwgt            1          17   14.400925565516880                1     1136715           0      100111           0
<weights>
0.12385E+02
</weights>
</event>
<event>
     15  10001  1.35503E+01  1.86186E+01 -1.00000E+00  2.16663E-01
      21    -1     0     0   511   501  0.000000000E+00  0.000000000E+00  9.594802900E+01  9.594802900E+01  0.000000000E+00  0.00000E+00  9.000E+00
      21    -1     0     0   507   502  0.000000000E+00  0.000000000E+00 -8.199443674E+02  8.199443674E+02  0.000000000E+00  0.00000E+00  9.000E+00
      -6     2     1     2     0   501  5.111884992E+01 -3.559140374E+01 -1.751278374E+02  2.534634520E+02  1.723196948E+02  0.00000E+00  9.000E+00
       6     2     1     2   507     0 -5.168359594E+01  5.420148113E+01 -5.905101377E+02  6.168144751E+02  1.617061511E+02  0.00000E+00  9.000E+00
     -24     2     3     3     0     0  4.484768265E+00  3.248968618E+01 -1.380201369E+02  1.624592188E+02  7.916910205E+01  0.00000E+00  9.000E+00
      24     2     4     4     0     0 -6.676513836E+01  4.326608580E+01 -2.483013278E+02  2.739042800E+02  8.390749277E+01  0.00000E+00  9.000E+00
     -11     1     6     6     0     0 -1.770299145E+01  6.095203880E+01 -1.376155700E+02  1.515473261E+02  0.000000000E+00  0.00000E+00  9.000E+00
      12     1     6     6     0     0 -4.906214691E+01 -1.768595300E+01 -1.106857578E+02  1.223569539E+02  2.697398305E-06  0.00000E+00  9.000E+00
      13     1     5     5     0     0 -2.048560413E+01  1.317241157E+00 -1.140400510E+02  1.158728973E+02  0.000000000E+00  0.00000E+00  9.000E+00
     -14     1     5     5     0     0  2.497037240E+01  3.117244503E+01 -2.398008589E+01  4.658632145E+01  1.066240300E-06  0.00000E+00  9.000E+00
       5     1     4     4   514     0  1.449201175E+01  1.158229790E+01 -2.628972363E+02  2.635937923E+02  4.750000000E+00  0.00000E+00  9.000E+00
      -5     1     3     3     0   512  2.526366844E+01 -4.320648741E+01 -2.356334867E+01  5.552339505E+01  4.750000000E+00  0.00000E+00  9.000E+00
      21     1     1     2   511   502  5.647460182E-01 -1.861007739E+01  4.164163661E+01  4.561446939E+01  2.567846683E-06  0.00000E+00  9.000E+00
      21     1     3     3   512   501  2.137041321E+01 -2.487460252E+01 -1.354435183E+01  3.548083818E+01  3.371747881E-07  0.00000E+00  9.000E+00
      21     1     4     4   507   514  5.895306745E-01 -6.469025631E-01 -7.931157362E+01  7.931640271E+01  9.536743164E-07  0.00000E+00  9.000E+00
#rwgt            1          17   31.413541380038758                1     1139182           0       11110           0
<weights>
0.12303E+02
</weights>
</event>
<event>
     14  10001  1.35503E+01  3.11745E+01 -1.00000E+00  6.17851E-01
      21    -1     0     0   512   501  0.000000000E+00  0.000000000E+00  1.169865630E+03  1.169865630E+03  0.000000000E+00  0.00000E+00  9.000E+00
      21    -1     0     0   507   502  0.000000000E+00  0.000000000E+00 -5.327061093E+02  5.327061093E+02  0.000000000E+00  0.00000E+00  9.000E+00
      -6     2     1     2     0   501 -8.614976261E+01 -1.084968729E+01  1.107704322E+03  1.124304894E+03  1.717938706E+02  0.00000E+00  9.000E+00
       6     2     1     2   507     0  8.546938272E+01 -2.031743521E+01 -1.242902268E+02  2.306117255E+02  1.732509564E+02  0.00000E+00  9.000E+00
     -24     2     3     3     0     0 -6.353860449E+00 -5.189593931E+01  4.251009137E+02  4.358047191E+02  8.050718158E+01  0.00000E+00  9.000E+00
      24     2     4     4     0     0  8.864508524E+01  2.527535185E+01 -3.055092550E+01  1.262162925E+02  8.062505135E+01  0.00000E+00  9.000E+00
     -11     1     6     6     0     0  7.918419351E+01 -1.367805501E+01 -3.099674563E+01  8.612795092E+01  0.000000000E+00  0.00000E+00  9.000E+00
      12     1     6     6     0     0  9.460891729E+00  3.895340685E+01  4.458201246E-01  4.008834161E+01  1.174228994E-06  0.00000E+00  9.000E+00
      13     1     5     5     0     0 -9.947764058E+00 -6.107868699E+01  4.203105379E+02  4.248417497E+02  0.000000000E+00  0.00000E+00  9.000E+00
     -14     1     5     5     0     0  3.593903608E+00  9.182747673E+00  4.790375842E+00  1.096296943E+01  8.840797528E-07  0.00000E+00  9.000E+00
       5     1     4     4   507     0 -3.175702522E+00 -4.559278705E+01 -9.373930127E+01  1.043954329E+02  4.750000000E+00  0.00000E+00  9.000E+00
      -5     1     3     3     0   511 -7.243223562E+01  3.730132271E+01  6.133044964E+02  6.187105828E+02  4.750000000E+00  0.00000E+00  9.000E+00
      21     1     1     2   512   502  6.803798958E-01  3.116712250E+01 -3.462545739E+02  3.476551199E+02  6.607249480E-06  0.00000E+00  9.000E+00
      21     1     3     3   511   501 -7.363666544E+00  3.744929310E+00  6.929891135E+01  6.978959231E+01  9.536743164E-07  0.00000E+00  9.000E+00
#rwgt            1          17   244.86754011288411                1     1149043           0         111           0
<weights>
0.13512E+02
</weights>
</event>
<event>
     15  10001  1.35503E+01  2.00912E+01 -1.00000E+00  1.85297E-01
      21    -1     0     0   502   511  0.000000000E+00  0.000000000E+00  4.420095759E+01  4.420095759E+01  0.000000000E+00  0.00000E+00  9.000E+00
      21    -1     0     0   507   502  0.000000000E+00  0.000000000E+00 -1.572870425E+03  1.572870425E+03  0.000000000E+00  0.00000E+00  9.000E+00
      -6     2     1     2     0   501 -7.773846194E+00 -6.863645771E+01 -2.644918617E+02  3.263784398E+02  1.783130536E+02  0.00000E+00  9.000E+00
       6     2     1     2   507     0 -6.267460506E+00  5.426643206E+01 -6.153416641E+02  6.415460140E+02  1.730658771E+02  0.00000E+00  9.000E+00
     -24     2     3     3     0     0  2.283721063E+01 -2.960030526E+01 -2.583596235E+02  2.734010961E+02  8.124498796E+01  0.00000E+00  9.000E+00
      24     2     4     4     0     0 -3.867810170E+01  9.383046771E+01 -4.535677893E+02  4.715056290E+02  7.933263181E+01  0.00000E+00  9.000E+00
     -11     1     6     6     0     0  2.050248915E+01  3.277939442E+01 -8.697266631E+01  9.517922801E+01  0.000000000E+00  0.00000E+00  9.000E+00
      12     1     6     6     0     0 -5.918059085E+01  6.105107329E+01 -3.665951230E+02  3.763264010E+02  0.000000000E+00  0.00000E+00  9.000E+00
      13     1     5     5     0     0  4.505812730E+01  7.979903459E+00 -1.295810605E+02  1.374233057E+02  0.000000000E+00  0.00000E+00  9.000E+00
     -14     1     5     5     0     0 -2.222091667E+01 -3.758020872E+01 -1.287785630E+02  1.359777905E+02  2.697398305E-06  0.00000E+00  9.000E+00
       5     1     4     4   513     0  2.686460822E+01 -3.665605093E+01 -1.483489858E+02  1.552267932E+02  4.750000000E+00  0.00000E+00  9.000E+00
      -5     1     3     3     0   512 -2.512911579E+01 -1.915718660E+01 -2.636895216E+00  3.206222037E+01  4.750000000E+00  0.00000E+00  9.000E+00
      21     1     1     2   501   511  1.404130670E+01  1.437002565E+01 -6.488359418E+02  6.491469289E+02  1.078959322E-05  0.00000E+00  9.000E+00
      21     1     3     3   512   501 -5.481941039E+00 -1.987896585E+01 -3.495342979E+00  2.091512332E+01  3.500980176E-07  0.00000E+00  9.000E+00
      21     1     4     4   507   513  5.546032980E+00 -2.907984723E+00 -1.342488890E+01  1.481359170E+01  3.371747881E-07  0.00000E+00  9.000E+00
#rwgt            1          17   22.487493223246119                1     1168944           0       11110           0
<weights>
0.12993E+02
</weights>
</event>
<event>
     15  10001 -1.35503E+01  3.06324E+01 -1.00000E+00  2.06324E-01
      21    -1     0     0   512   501  0.000000000E+00  0.000000000E+00  5.026917267E+01  5.026917267E+01  0.000000000E+00  0.00000E+00  9.000E+00
      21    -1     0     0   501   502  0.000000000E+00  0.000000000E+00 -1.327902651E+03  1.327902651E+03  0.000000000E+00  0.00000E+00  9.000E+00
      -6     2     1     2     0   502 -9.106573182E+01 -1.017748721E+02 -7.059052747E+02  7.394561610E+02  1.727485605E+02  0.00000E+00  9.000E+00
       6     2     1     2   507     0  1.096732265E+02  7.744171868E+01 -5.666747695E+02  6.076692711E+02  1.735402324E+02  0.00000E+00  9.000E+00
     -24     2     3     3     0     0 -1.078643477E+01  1.167560220E+00 -3.747624210E+02  3.832578156E+02  7.951082067E+01  0.00000E+00  9.000E+00
      24     2     4     4     0     0  8.078211727E+01  6.953190619E+00 -4.742465569E+02  4.877523366E+02  8.011521592E+01  0.00000E+00  9.000E+00
     -11     1     6     6     0     0 -5.329498261E-01 -1.834518990E+01 -2.817968915E+01  3.362922700E+01  0.000000000E+00  0.00000E+00  9.000E+00
      12     1     6     6     0     0  8.131506710E+01  2.529838052E+01 -4.460668678E+02  4.541231096E+02  7.629394531E-06  0.00000E+00  9.000E+00
      13     1     5     5     0     0 -1.162739172E+00 -3.730117687E+01 -2.363072868E+02  2.392359997E+02  0.000000000E+00  0.00000E+00  9.000E+00
     -14     1     5     5     0     0 -9.623695594E+00  3.846873709E+01 -1.384551342E+02  1.440218158E+02  3.303624740E-06  0.00000E+00  9.000E+00
       5     1     4     4   514     0  2.005163182E+01  5.035722871E+01 -6.638878977E+01  8.583677725E+01  4.750000000E+00  0.00000E+00  9.000E+00
      -5     1     3     3     0   511 -5.541636494E+01 -6.952662513E+01 -2.099991414E+02  2.280945571E+02  4.750000000E+00  0.00000E+00  9.000E+00
      21     1     1     2   512   507 -1.860749471E+01  2.433315347E+01 -5.053433893E+00  3.104639128E+01  6.769786293E-07  0.00000E+00  9.000E+00
      21     1     3     3   511   502 -2.486293211E+01 -3.341580723E+01 -1.211437123E+02  1.281037884E+02  1.907348633E-06  0.00000E+00  9.000E+00
      21     1     4     4   507   514  8.839477434E+00  2.013129935E+01 -2.603942280E+01  3.408015720E+01  0.000000000E+00  0.00000E+00  9.000E+00
#rwgt            1          17  -60.680206729431781                1     1174525           0       11110           0
<weights>
-.13252E+02
</weights>
</event>
<event>
     13  10001  1.35503E+01  1.27660E+02 -1.00000E+00  1.19239E-01
      21    -1     0     0   507   511  0.000000000E+00  0.000000000E+00  1.005184990E+02  1.005184990E+02  0.000000000E+00  0.00000E+00  9.000E+00
      -2    -1     0     0     0   502  0.000000000E+00  0.000000000E+00 -8.245901660E+02  8.245901660E+02  0.000000000E+00  0.00000E+00  9.000E+00
      -6     2     1     2     0   502  4.639865184E+01 -9.805555149E+01 -1.029335628E+02  2.323523231E+02  1.778329486E+02  0.00000E+00  9.000E+00
       6     2     1     2   507     0  3.834545363E+01  2.580093557E+00 -4.233737202E+02  4.573675612E+02  1.687090644E+02  0.00000E+00  9.000E+00
     -24     2     3     3     0     0  6.446586846E+01  2.543408564E+00 -3.783330362E+01  1.110791549E+02  8.212735636E+01  0.00000E+00  9.000E+00
      24     2     4     4     0     0 -1.043790104E+01 -1.787758630E+01 -3.829546605E+02  3.906248069E+02  7.419508041E+01  0.00000E+00  9.000E+00
     -11     1     6     6     0     0 -5.257621108E+00  2.788686163E+01 -1.000932764E+02  1.040383756E+02  0.000000000E+00  0.00000E+00  9.000E+00
      12     1     6     6     0     0 -5.180279931E+00 -4.576444793E+01 -2.828613841E+02  2.865864313E+02  7.629394531E-06  0.00000E+00  9.000E+00
      13     1     5     5     0     0  3.822229535E+01 -3.621137647E+01 -3.684686343E+01  6.426429018E+01  0.000000000E+00  0.00000E+00  9.000E+00
     -14     1     5     5     0     0  2.624357311E+01  3.875478503E+01 -9.864401889E-01  4.681486470E+01  1.778614485E-06  0.00000E+00  9.000E+00
       5     1     4     4   507     0  4.878335467E+01  2.045767985E+01 -4.041905975E+01  6.674275428E+01  4.750000000E+00  0.00000E+00  9.000E+00
      -5     1     3     3     0   502 -1.806721662E+01 -1.005989601E+02 -6.510025921E+01  1.212731682E+02  4.750000000E+00  0.00000E+00  9.000E+00
      -2     1     1     2     0   511 -8.474410548E+01  9.547545793E+01 -1.977643840E+02  2.353887807E+02  0.000000000E+00  0.00000E+00  9.000E+00
#rwgt            2          89   1.0021226042678100E-002           1     1190187           0           1           0
<weights>
0.13550E+02
</weights>
</event>
<event>
     15  10001  1.35503E+01  7.16247E+01 -1.00000E+00  6.35031E-01
      21    -1     0     0   512   501  0.000000000E+00  0.000000000E+00  2.669032320E+02  2.669032320E+02  0.000000000E+00  0.00000E+00  9.000E+00
      21    -1     0     0   507   502  0.000000000E+00  0.000000000E+00 -2.615249613E+02  2.615249613E+02  0.000000000E+00  0.00000E+00  9.000E+00
      -6     2     1     2     0   501  1.080056722E+02  7.830550354E+01 -1.991839858E+01  2.410284340E+02  1.997523123E+02  0.00000E+00  9.000E+00
       6     2     1     2   507     0 -3.917619085E+01 -9.811965458E+01 -1.892275177E+01  2.032246128E+02  1.725686303E+02  0.00000E+00  9.000E+00
     -24     2     3     3     0     0  6.178963990E+01  1.323763077E+02 -2.857606612E+00  1.671334771E+02  8.114176988E+01  0.00000E+00  9.000E+00
      24     2     4     4     0     0  1.291579444E+01 -2.627045599E+01 -5.281957321E+01  1.027793546E+02  8.316690330E+01  0.00000E+00  9.000E+00
     -11     1     6     6     0     0 -2.036995040E+00 -5.161416315E+01 -5.206858986E+01  7.334377435E+01  0.000000000E+00  0.00000E+00  9.000E+00
      12     1     6     6     0     0  1.495278948E+01  2.534370716E+01 -7.509833489E-01  2.943558020E+01  1.446525954E-06  0.00000E+00  9.000E+00
      13     1     5     5     0     0  5.462936293E+01  3.685291286E+01  1.958841420E+01  6.874743960E+01  0.000000000E+00  0.00000E+00  9.000E+00
     -14     1     5     5     0     0  7.160276964E+00  9.552339486E+01 -2.244602081E+01  9.838603754E+01  2.654916936E-06  0.00000E+00  9.000E+00
       5     1     4     4   513     0 -3.444242866E+01 -6.318805188E+01  1.603550737E+01  7.388308865E+01  4.750000000E+00  0.00000E+00  9.000E+00
      -5     1     3     3     0   511  4.468912316E+01 -5.414706595E+01 -1.678067220E+01  7.234069352E+01  4.750000000E+00  0.00000E+00  9.000E+00
      21     1     1     2   512   502 -6.882948137E+01  1.981415104E+01  4.421942106E+01  8.417514648E+01  1.719260824E-06  0.00000E+00  9.000E+00
      21     1     4     4   507   513 -1.764955663E+01 -8.661146714E+00  1.786131406E+01  2.656216956E+01  6.307962682E-07  0.00000E+00  9.000E+00
      21     1     3     3   511   501  1.526909163E+00  7.626176366E-02 -2.801197707E-01  1.554263341E+00  8.330002343E-09  0.00000E+00  9.000E+00
#rwgt            1          17   39.927828402298452                1     1191201           0       11011           0
<weights>
0.21556E+02
</weights>
</event>
<event>
     15  10001 -1.35503E+01  8.03605E+01 -1.00000E+00  2.66783E-01
      21    -1     0     0   507   511  0.000000000E+00  0.000000000E+00  8.592871713E+01  8.592871713E+01  0.000000000E+00  0.00000E+00  9.000E+00
      21    -1     0     0   501   502  0.000000000E+00  0.000000000E+00 -7.830050305E+02  7.830050305E+02  0.000000000E+00  0.00000E+00  9.000E+00
      -6     2     1     2     0   502 -1.009078501E+02  1.114368478E+01 -2.826551098E+02  3.450786135E+02  1.699375252E+02  0.00000E+00  9.000E+00
       6     2     1     2   507     0  2.157829376E+01  1.687502957E+00 -4.078138956E+02  4.432234133E+02  1.722392239E+02  0.00000E+00  9.000E+00
     -24     2     3     3     0     0 -8.619204373E+01  2.645940411E+01 -9.262576798E+01  1.534130970E+02  8.262491735E+01  0.00000E+00  9.000E+00
      24     2     4     4     0     0  3.120762824E+01 -4.569870169E+01 -3.638974494E+02  3.768280084E+02  8.071992804E+01  0.00000E+00  9.000E+00
     -11     1     6     6     0     0  8.925693814E+00 -4.282145061E+01 -7.327168716E+01  8.533513216E+01  0.000000000E+00  0.00000E+00  9.000E+00
      12     1     6     6     0     0  2.228193443E+01 -2.877251087E+00 -2.906257623E+02  2.914928762E+02  5.394796609E-06  0.00000E+00  9.000E+00
      13     1     5     5     0     0 -4.061505628E+01 -2.913759884E+01 -4.428212982E+01  6.677940913E+01  0.000000000E+00  0.00000E+00  9.000E+00
     -14     1     5     5     0     0 -4.557698745E+01  5.559700295E+01 -4.834363816E+01  8.663368786E+01  2.236564522E-06  0.00000E+00  9.000E+00
       5     1     4     4   513     0 -9.925882970E+00  4.777286723E+01 -4.244469326E+01  6.484508063E+01  4.750000000E+00  0.00000E+00  9.000E+00
      -5     1     3     3     0   512 -1.481285783E+01 -1.714154807E+01 -1.743350763E+02  1.758651039E+02  4.750000000E+00  0.00000E+00  9.000E+00
      21     1     1     2   501   511  7.932955636E+01 -1.283118774E+01 -6.607308047E+00  8.063172087E+01  1.940586638E-06  0.00000E+00  9.000E+00
      21     1     3     3   512   502  9.705144261E-02  1.825828741E+00 -1.569426549E+01  1.580041261E+01  1.685873940E-07  0.00000E+00  9.000E+00
      21     1     4     4   507   513  2.965484889E-01 -3.866625787E-01 -1.471752871E+00  1.550324311E+00  0.000000000E+00  0.00000E+00  9.000E+00
#rwgt            1          17  -14.382394561604150                1     1200593           0       11110           0
<weights>
0.45743E+01
</weights>
</event>
<event>
     15  10001  1.35503E+01  1.07878E+01 -1.00000E+00  1.64676E-01
      21    -1     0     0   511   501  0.000000000E+00  0.000000000E+00  1.278023775E+02  1.278023775E+02  0.000000000E+00  0.00000E+00  9.000E+00
      21    -1     0     0   501   502  0.000000000E+00  0.000000000E+00 -4.371938759E+02  4.371938759E+02  0.000000000E+00  0.00000E+00  9.000E+00
      -6     2     1     2     0   502 -6.223053170E+01 -1.971606840E+01 -8.296302346E+01  1.975243187E+02  1.669479882E+02  0.00000E+00  9.000E+00
       6     2     1     2   507     0  6.253129223E+01  3.049962884E+01 -4.719885541E+01  1.879179536E+02  1.680625939E+02  0.00000E+00  9.000E+00
     -24     2     3     3     0     0 -5.455372736E+01 -6.732214601E+01 -8.164629312E+01  1.434180567E+02  7.996399994E+01  0.00000E+00  9.000E+00
      24     2     4     4     0     0  1.598403878E+01  6.953491807E+01 -6.007496262E+01  1.247017741E+02  8.277038720E+01  0.00000E+00  9.000E+00
     -11     1     6     6     0     0 -2.408623267E+01  6.393177783E+01 -3.190681485E+01  7.540201360E+01  0.000000000E+00  0.00000E+00  9.000E+00
      12     1     6     6     0     0  4.007027145E+01  5.603140239E+00 -2.816814776E+01  4.929976048E+01  7.539457465E-07  0.00000E+00  9.000E+00
      13     1     5     5     0     0  1.945811039E+01 -1.585911213E+01 -3.144857439E+01  4.023856768E+01  0.000000000E+00  0.00000E+00  9.000E+00
     -14     1     5     5     0     0 -7.401183775E+01 -5.146303388E+01 -5.019771873E+01  1.031794890E+02  6.743495762E-07  0.00000E+00  9.000E+00
       5     1     4     4   514     0  4.465748321E+01 -3.962000874E+01  1.277393089E+01  6.123537956E+01  4.750000000E+00  0.00000E+00  9.000E+00
      -5     1     3     3     0   512 -4.523238801E-01  2.227272017E+01  1.068273473E+01  2.515873570E+01  4.750000000E+00  0.00000E+00  9.000E+00
      21     1     3     3   512   502 -7.224480464E+00  2.533335743E+01 -1.199946507E+01  2.894752630E+01  9.078709013E-07  0.00000E+00  9.000E+00
      21     1     1     2   511   507 -3.007605279E-01 -1.078356044E+01 -1.792296195E+02  1.795539811E+02  4.264961200E-06  0.00000E+00  9.000E+00
      21     1     4     4   507   514  1.889770238E+00  5.847195141E-01  1.021763098E-01  1.980799955E+00  2.381710681E-08  0.00000E+00  9.000E+00
#rwgt            1          17   7.1276274324080093                1     1212243           0      110110           0
<weights>
0.19932E+02
</weights>
</event>
<event>
     15  10001  1.35503E+01  4.49720E+00 -1.00000E+00  7.30967E-01
       2    -1     0     0   511     0  0.000000000E+00  0.000000000E+00  2.650592702E+02  2.650592702E+02  0.000000000E+00  0.00000E+00  9.000E+00
      -2    -1     0     0     0   502  0.000000000E+00  0.000000000E+00 -1.500647501E+02  1.500647501E+02  0.000000000E+00  0.00000E+00  9.000E+00
      -6     2     1     2     0   502  2.579697143E+01 -8.536909219E+01  3.544735017E+01  2.027271636E+02  1.785732975E+02  0.00000E+00  9.000E+00
       6     2     1     2   507     0 -2.881242344E+01  8.203264868E+01  7.585872179E+01  2.065805472E+02  1.713518767E+02  0.00000E+00  9.000E+00
     -24     2     3     3     0     0  7.389198212E+01 -9.404357539E+01  2.267093133E+00  1.431482001E+02  7.862600318E+01  0.00000E+00  9.000E+00
      24     2     4     4     0     0 -2.486858881E+01 -2.584665788E+00 -1.117577456E+01  8.487799732E+01  8.033834256E+01  0.00000E+00  9.000E+00
     -11     1     6     6     0     0 -1.261151251E+01  3.153853333E+01  1.790674011E+01  3.839766495E+01  0.000000000E+00  0.00000E+00  9.000E+00
      12     1     6     6     0     0 -1.225707630E+01 -3.412319912E+01 -2.908251467E+01  4.648033237E+01  1.011524364E-06  0.00000E+00  9.000E+00
      13     1     5     5     0     0  5.975258355E+01 -1.028520434E+02 -1.411533308E+01  1.197837915E+02  0.000000000E+00  0.00000E+00  9.000E+00
     -14     1     5     5     0     0  1.413939857E+01  8.808468000E+00  1.638242621E+01  2.336440859E+01  3.371747881E-07  0.00000E+00  9.000E+00
       5     1     4     4   512     0 -2.117386606E+00  7.689019404E+01  7.750252268E+01  1.092967922E+02  4.750000000E+00  0.00000E+00  9.000E+00
      -5     1     3     3     0   513 -4.752695592E+01  8.747918158E+00  3.169434743E+01  5.798647920E+01  4.750000000E+00  0.00000E+00  9.000E+00
      21     1     1     2   511   507  3.015452017E+00  3.336443511E+00  3.688448200E+00  5.816309508E+00  1.115100797E-07  0.00000E+00  9.000E+00
      21     1     4     4   507   512 -1.826448026E+00  7.727120431E+00  9.531973673E+00  1.240575772E+01  2.384185791E-07  0.00000E+00  9.000E+00
      21     1     3     3   513   502 -5.680547769E-01 -7.343496378E-02  1.485909613E+00  1.592484317E+00  2.107342426E-08  0.00000E+00  9.000E+00
#rwgt            1           8  0.53752819335571622                1     1221444           0       11011           0
<weights>
0.16596E+02
</weights>
</event>
<event>
     13  10001  1.35503E+01  1.10853E+02 -1.00000E+00  1.21848E-01
      21    -1     0     0   502   501  0.000000000E+00  0.000000000E+00  8.192583794E+02  8.192583794E+02  0.000000000E+00  0.00000E+00  9.000E+00
      21    -1     0     0   507   512  0.000000000E+00  0.000000000E+00 -1.833012747E+02  1.833012747E+02  0.000000000E+00  0.00000E+00  9.000E+00
      -6     2     1     2     0   501  6.638623044E+01 -1.259517426E+02  4.682755389E+02  5.186196684E+02  1.715033732E+02  0.00000E+00  9.000E+00
       6     2     1     2   507     0  4.115099408E+01  9.904076760E+01  2.667876456E+02  3.352440869E+02  1.723672591E+02  0.00000E+00  9.000E+00
     -24     2     3     3     0     0  6.603570207E+01 -8.484640984E+01  1.640742892E+02  2.116168441E+02  7.938317919E+01  0.00000E+00  9.000E+00
      24     2     4     4     0     0  4.598908663E+01  2.107602774E+00  1.894785010E+02  2.110719808E+02  8.080742968E+01  0.00000E+00  9.000E+00
     -11     1     6     6     0     0  5.016168092E+01  3.019170635E+01  8.800017880E+01  1.056965696E+02  0.000000000E+00  0.00000E+00  9.000E+00
      12     1     6     6     0     0 -4.172594292E+00 -2.808410358E+01  1.014783222E+02  1.053754112E+02  1.348699152E-06  0.00000E+00  9.000E+00
      13     1     5     5     0     0  6.237023845E+01 -6.904060681E+01  1.704448628E+02  1.941857443E+02  0.000000000E+00  0.00000E+00  9.000E+00
     -14     1     5     5     0     0  3.665463616E+00 -1.580580303E+01 -6.370573620E+00  1.743109983E+01  6.951036328E-07  0.00000E+00  9.000E+00
       5     1     4     4   507     0 -4.838092553E+00  9.693316483E+01  7.730914467E+01  1.241721061E+02  4.750000000E+00  0.00000E+00  9.000E+00
      -5     1     3     3     0   501  3.505283651E-01 -4.110533278E+01  3.042012497E+02  3.070028242E+02  4.750000000E+00  0.00000E+00  9.000E+00
      21     1     1     2   502   512 -1.075372245E+02  2.691097502E+01 -9.910607990E+01  1.486958988E+02  1.348699152E-06  0.00000E+00  9.000E+00
#rwgt            2         113   4.4032553774616687                1     1264453           0           1           0
<weights>
0.13550E+02
</weights>
</event>
<event>
     13  10001  1.35503E+01  1.84469E+02 -1.00000E+00  1.12941E-01
      21    -1     0     0   511   501  0.000000000E+00  0.000000000E+00  7.387719230E+01  7.387719230E+01  0.000000000E+00  0.00000E+00  9.000E+00
       2    -1     0     0   507     0  0.000000000E+00  0.000000000E+00 -1.629200775E+03  1.629200775E+03  0.000000000E+00  0.00000E+00  9.000E+00
      -6     2     1     2     0   501 -6.708010814E+01 -5.375649456E+01 -1.771351858E+02  2.610258102E+02  1.713712284E+02  0.00000E+00  9.000E+00
       6     2     1     2   507     0 -7.719560754E+01 -6.119290221E+01 -4.056699313E+02  4.521930702E+02  1.738008817E+02  0.00000E+00  9.000E+00
     -24     2     3     3     0     0 -1.485544272E+00 -8.739514352E+01 -1.086955050E+02  1.603244799E+02  7.905130045E+01  0.00000E+00  9.000E+00
      24     2     4     4     0     0  9.621668505E+00 -5.847663363E+01 -2.923339575E+02  3.093217190E+02  8.190659283E+01  0.00000E+00  9.000E+00
     -11     1     6     6     0     0  3.973648382E+01 -6.771025429E+00 -1.389816846E+02  1.447091690E+02  0.000000000E+00  0.00000E+00  9.000E+00
      12     1     6     6     0     0 -3.011481531E+01 -5.170560820E+01 -1.533522730E+02  1.646125501E+02  1.907348633E-06  0.00000E+00  9.000E+00
      13     1     5     5     0     0  3.653506453E+01 -4.639462694E+01 -7.337619669E+01  9.418778365E+01  0.000000000E+00  0.00000E+00  9.000E+00
     -14     1     5     5     0     0 -3.802060881E+01 -4.100051659E+01 -3.531930831E+01  6.613669627E+01  1.581489940E-06  0.00000E+00  9.000E+00
       5     1     4     4   507     0 -8.681727604E+01 -2.716268576E+00 -1.133359737E+02  1.428713511E+02  4.750000000E+00  0.00000E+00  9.000E+00
      -5     1     3     3     0   501 -6.559456387E+01  3.363864896E+01 -6.843968080E+01  1.007013303E+02  4.750000000E+00  0.00000E+00  9.000E+00
       2     1     1     2   511     0  1.442757157E+02  1.149493968E+02 -9.725184656E+02  9.898590869E+02  0.000000000E+00  0.00000E+00  9.000E+00
#rwgt            2          93   6.0600986405246388E-002           1     1285964           0           1           0
<weights>
0.13550E+02
</weights>
</event>
<event>
     15  10001  1.35503E+01  1.97603E+01 -1.00000E+00  5.50814E-01
      21    -1     0     0   512   501  0.000000000E+00  0.000000000E+00  3.093592344E+02  3.093592344E+02  0.000000000E+00  0.00000E+00  9.000E+00
      21    -1     0     0   507   502  0.000000000E+00  0.000000000E+00 -3.218144258E+02  3.218144258E+02  0.000000000E+00  0.00000E+00  9.000E+00
      -6     2     1     2     0   501 -4.248900949E+01 -1.186156643E+02  1.007865384E+02  2.384101920E+02  1.755178099E+02  0.00000E+00  9.000E+00
       6     2     1     2   507     0  3.017977432E+01  1.031575867E+02 -2.108969227E+02  2.931291060E+02  1.729012849E+02  0.00000E+00  9.000E+00
     -24     2     3     3     0     0 -2.197800796E+01 -2.774940534E+01 -1.516122658E+01  8.952734200E+01  8.082214946E+01  0.00000E+00  9.000E+00
      24     2     4     4     0     0  2.053265808E+01  6.171965443E+01 -2.659368384E+01  1.024764706E+02  7.458751386E+01  0.00000E+00  9.000E+00
     -11     1     6     6     0     0  1.764587189E+00 -1.738116293E+01 -2.260805844E+00  1.761618108E+01  0.000000000E+00  0.00000E+00  9.000E+00
      12     1     6     6     0     0  1.876807089E+01  7.910081736E+01 -2.433287799E+01  8.486028956E+01  1.815741803E-06  0.00000E+00  9.000E+00
      13     1     5     5     0     0  1.799904916E+01 -3.783079090E+01 -2.264837119E+01  4.762439741E+01  0.000000000E+00  0.00000E+00  9.000E+00
     -14     1     5     5     0     0 -3.997705712E+01  1.008138556E+01  7.487144615E+00  4.190294459E+01  2.024804086E-06  0.00000E+00  9.000E+00
       5     1     4     4   511     0  7.633796118E+00  3.317650080E+01 -1.736630570E+02  1.770321296E+02  4.750000000E+00  0.00000E+00  9.000E+00
      -5     1     3     3     0   514 -1.826853612E+01 -8.530904451E+01  1.093670602E+02  1.399824591E+02  4.750000000E+00  0.00000E+00  9.000E+00
      21     1     1     2   512   502  1.230923517E+01  1.545807763E+01  9.765519287E+01  9.963436219E+01  2.697398305E-06  0.00000E+00  9.000E+00
      21     1     4     4   507   511  2.013320121E+00  8.261431488E+00 -1.064018181E+01  1.362050576E+01  2.920019320E-07  0.00000E+00  9.000E+00
      21     1     3     3   514   501 -2.242465407E+00 -5.557214487E+00  6.580704763E+00  8.900390953E+00  1.685873940E-07  0.00000E+00  9.000E+00
#rwgt            1          17   53.149673230335537                1     1290242           0       11011           0
<weights>
0.12678E+02
</weights>
</event>
<event>
     15  10001  1.35503E+01  1.58712E+01 -1.00000E+00  5.76947E-01
      21    -1     0     0   502   511  0.000000000E+00  0.000000000E+00  1.274886215E+02  1.274886215E+02  0.000000000E+00  0.00000E+00  9.000E+00
      21    -1     0     0   507   502  0.000000000E+00  0.000000000E+00 -4.396026615E+02  4.396026615E+02  0.000000000E+00  0.00000E+00  9.000E+00
      -6     2     1     2     0   501 -1.077023729E+02  7.414533690E+01 -1.410220364E+02  2.571215882E+02  1.706662365E+02  0.00000E+00  9.000E+00
       6     2     1     2   507     0  1.187553328E+02 -8.553509223E+01 -1.801633632E+02  2.916889942E+02  1.766480989E+02  0.00000E+00  9.000E+00
     -24     2     3     3     0     0 -4.823135925E+01 -6.016882089E+00 -1.311198258E+01  9.471851375E+01  8.023219974E+01  0.00000E+00  9.000E+00
      24     2     4     4     0     0  1.437430638E+02 -4.691133755E+01 -1.718842593E+02  2.432389485E+02  8.220854881E+01  0.00000E+00  9.000E+00
     -11     1     6     6     0     0  4.143151773E+00 -2.893182036E+01 -4.545968019E+01  5.404441192E+01  0.000000000E+00  0.00000E+00  9.000E+00
      12     1     6     6     0     0  1.395999120E+02 -1.797951719E+01 -1.264245791E+02  1.891945366E+02  1.348699152E-06  0.00000E+00  9.000E+00
      13     1     5     5     0     0  1.728901856E+01  1.329298080E+01 -1.485921588E+01  2.638957744E+01  0.000000000E+00  0.00000E+00  9.000E+00
     -14     1     5     5     0     0 -6.552037781E+01 -1.930986289E+01  1.747233300E+00  6.832893631E+01  1.990964662E-06  0.00000E+00  9.000E+00
       5     1     4     4   512     0 -2.583538462E+01 -3.542191778E+01 -6.183518851E+00  4.453063848E+01  4.750000000E+00  0.00000E+00  9.000E+00
      -5     1     3     3     0   513 -5.783357860E+01  7.755268097E+01 -1.223746064E+02  1.560680875E+02  4.750000000E+00  0.00000E+00  9.000E+00
      21     1     1     2   501   511 -1.105295989E+01  1.138975534E+01  9.071359579E+00  1.828070058E+01  4.298152060E-07  0.00000E+00  9.000E+00
      21     1     4     4   507   512  8.476535803E-01 -3.201836903E+00 -2.095585023E+00  3.919407192E+00  4.214684851E-08  0.00000E+00  9.000E+00
      21     1     3     3   513   501 -1.637435021E+00  2.609538019E+00 -5.535447387E+00  6.334986969E+00  8.429369702E-08  0.00000E+00  9.000E+00
#rwgt            1          17   16.748449634799581                1     1296725           0       11011           0
<weights>
0.17128E+02
</weights>
</event>
<event>
     15  10001  1.35503E+01  1.42725E+01 -1.00000E+00  1.52615E-01
      21    -1     0     0   502   501  0.000000000E+00  0.000000000E+00  1.681669286E+02  1.681669286E+02  0.000000000E+00  0.00000E+00  9.000E+00
      21    -1     0     0   511   502  0.000000000E+00  0.000000000E+00 -9.515223014E+02  9.515223014E+02  0.000000000E+00  0.00000E+00  9.000E+00
      -6     2     1     2     0   501 -2.990019704E+02  7.777291187E+01 -1.343085664E+02  3.723745005E+02  1.586605605E+02  0.00000E+00  9.000E+00
       6     2     1     2   507     0  2.882037342E+02 -6.843997234E+01 -6.478879034E+02  7.329952072E+02  1.725624990E+02  0.00000E+00  9.000E+00
     -24     2     3     3     0     0 -5.403316600E+01  4.067335253E+01 -6.466383793E+01  1.092465744E+02  5.638703265E+01  0.00000E+00  9.000E+00
      24     2     4     4     0     0  1.945467873E+02  1.213239059E+01 -3.402525307E+02  4.012058708E+02  8.484526372E+01  0.00000E+00  9.000E+00
     -11     1     6     6     0     0  1.518637054E+02  4.433951941E+01 -2.697536519E+02  3.127228977E+02  0.000000000E+00  0.00000E+00  9.000E+00
      12     1     6     6     0     0  4.268308189E+01 -3.220712883E+01 -7.049887877E+01  8.848297314E+01  0.000000000E+00  0.00000E+00  9.000E+00
      13     1     5     5     0     0 -5.062363596E+01  4.304437983E+01 -2.760470867E+01  7.195547994E+01  0.000000000E+00  0.00000E+00  9.000E+00
     -14     1     5     5     0     0 -3.409530045E+00 -2.371027299E+00 -3.705912926E+01  3.729109447E+01  1.066240300E-06  0.00000E+00  9.000E+00
       5     1     4     4   514     0  8.240447449E+01 -6.714104461E+01 -2.722600202E+02  2.923123302E+02  4.750000000E+00  0.00000E+00  9.000E+00
      -5     1     3     3     0   512 -2.341925896E+02  4.132675225E+01 -7.627371318E+01  2.497885332E+02  4.750000000E+00  0.00000E+00  9.000E+00
      21     1     3     3   512   501 -1.077621480E+01 -4.227192904E+00  6.628984657E+00  1.333939290E+01  7.952251473E-07  0.00000E+00  9.000E+00
      21     1     1     2   511   507  1.079823618E+01 -9.332939537E+00 -1.158902896E+00  1.431952237E+01  1.948579674E-07  0.00000E+00  9.000E+00
      21     1     4     4   507   514  1.125247242E+01 -1.343131832E+01 -3.537535255E+01  3.947700616E+01  6.743495762E-07  0.00000E+00  9.000E+00
#rwgt            1          17   1.8982202162115185                1     1306691           0      110110           0
<weights>
0.20239E+02
</weights>
</event>
<event>
     13  10001  1.35503E+01  4.47592E+01 -1.00000E+00  1.41876E-01
      21    -1     0     0   507   501  0.000000000E+00  0.000000000E+00  8.144188984E+02  8.144188984E+02  0.000000000E+00  0.00000E+00  9.000E+00
      21    -1     0     0   511   502  0.000000000E+00  0.000000000E+00 -9.337267001E+01  9.337267001E+01  0.000000000E+00  0.00000E+00  9.000E+00
      -6     2     1     2     0   502 -8.222892169E+01  5.683993010E+00  1.106502004E+02  2.211044686E+02  1.727709925E+02  0.00000E+00  9.000E+00
       6     2     1     2   507     0  3.818915835E+01 -1.367699833E+01  6.167121318E+02  6.414844223E+02  1.718224039E+02  0.00000E+00  9.000E+00
     -24     2     3     3     0     0 -7.616254893E+01 -1.175396580E+00  1.466056136E+02  1.836985019E+02  8.031076049E+01  0.00000E+00  9.000E+00
      24     2     4     4     0     0  7.863059706E+01 -4.150718343E+01  5.098597282E+02  5.237982812E+02  8.063547512E+01  0.00000E+00  9.000E+00
     -11     1     6     6     0     0  1.696469102E+01  3.970313201E+00  1.484810479E+01  2.289170907E+01  0.000000000E+00  0.00000E+00  9.000E+00
      12     1     6     6     0     0  6.166590604E+01 -4.547749663E+01  4.950116234E+02  5.009065721E+02  0.000000000E+00  0.00000E+00  9.000E+00
      13     1     5     5     0     0 -1.975018346E+01  1.734894843E+01  8.373679402E-01  2.630127266E+01  0.000000000E+00  0.00000E+00  9.000E+00
     -14     1     5     5     0     0 -5.641236546E+01 -1.852434501E+01  1.457682456E+02  1.573972292E+02  2.697398305E-06  0.00000E+00  9.000E+00
       5     1     4     4   507     0 -4.044143871E+01  2.783018510E+01  1.068524036E+02  1.176861411E+02  4.750000000E+00  0.00000E+00  9.000E+00
      -5     1     3     3     0   502 -6.066372765E+00  6.859389590E+00 -3.595541323E+01  3.740596669E+01  4.750000000E+00  0.00000E+00  9.000E+00
      21     1     1     2   511   501  4.403976334E+01  7.993005321E+00 -6.316103716E+00  4.520267753E+01  9.721223372E-07  0.00000E+00  9.000E+00
#rwgt            2         113   14.017237079020953                1     1324488           0           1           0
<weights>
0.13550E+02
</weights>
</event>
<event>
     15  10001  1.35503E+01  3.55043E+01 -1.00000E+00  2.21849E-01
      21    -1     0     0   512   501  0.000000000E+00  0.000000000E+00  1.879444533E+02  1.879444533E+02  0.000000000E+00  0.00000E+00  9.000E+00
      21    -1     0     0   507   502  0.000000000E+00  0.000000000E+00 -3.238580679E+02  3.238580679E+02  0.000000000E+00  0.00000E+00  9.000E+00
      -6     2     1     2     0   501 -7.864329905E+01 -4.833316812E+01  2.641362845E+01  2.039202469E+02  1.799025394E+02  0.00000E+00  9.000E+00
       6     2     1     2   507     0  1.021118263E+02  7.497499476E+01 -1.016903721E+02  2.376157188E+02  1.734134457E+02  0.00000E+00  9.000E+00
     -24     2     3     3     0     0 -7.437964723E+01 -9.468745225E+01 -5.522160221E+00  1.453006701E+02  8.114027936E+01  0.00000E+00  9.000E+00
      24     2     4     4     0     0  5.765198971E+01 -2.089631622E+01 -7.033866065E+01  1.235801660E+02  8.101927115E+01  0.00000E+00  9.000E+00
     -11     1     6     6     0     0  5.922943482E+01 -1.112027304E+01 -8.602255848E+01  1.050317428E+02  0.000000000E+00  0.00000E+00  9.000E+00
      12     1     6     6     0     0 -1.577445116E+00 -9.776043176E+00  1.568389783E+01  1.854842323E+01  8.429369702E-07  0.00000E+00  9.000E+00
      13     1     5     5     0     0 -2.925858286E+01 -9.526343680E+01  1.295817989E+00  9.966376577E+01  0.000000000E+00  0.00000E+00  9.000E+00
     -14     1     5     5     0     0 -4.512106436E+01  5.759845567E-01 -6.817978210E+00  4.563690430E+01  6.474721725E-07  0.00000E+00  9.000E+00
       5     1     4     4   513     0  1.994833578E+01  6.069967342E+01 -3.097279441E+01  7.116363500E+01  4.750000000E+00  0.00000E+00  9.000E+00
      -5     1     3     3     0   511 -1.237362709E+00  4.178646709E+01  2.251005816E+01  4.771692694E+01  4.750000000E+00  0.00000E+00  9.000E+00
      21     1     1     2   512   502 -2.346852726E+01 -2.664182664E+01 -6.063687097E+01  7.026655549E+01  9.536743164E-07  0.00000E+00  9.000E+00
      21     1     4     4   507   513  2.451150082E+01  3.517163756E+01 -3.789170673E-01  4.287191784E+01  8.865408252E-07  0.00000E+00  9.000E+00
      21     1     3     3   511   501 -3.026289116E+00  4.567817040E+00  9.425730508E+00  1.090264986E+01  2.064765462E-07  0.00000E+00  9.000E+00
#rwgt            1          17   13.184606274190438                1     1327567           0       11011           0
<weights>
0.14878E+02
</weights>
</event>
<event>
     15  10001  1.35503E+01  3.79797E+01 -1.00000E+00  1.66678E-01
      21    -1     0     0   507   511  0.000000000E+00  0.000000000E+00  2.253384322E+01  2.253384322E+01  0.000000000E+00  0.00000E+00  9.000E+00
      21    -1     0     0   501   502  0.000000000E+00  0.000000000E+00 -3.045339215E+03  3.045339215E+03  0.000000000E+00  0.00000E+00  9.000E+00
      -6     2     1     2     0   502  8.335593905E+00  1.029068126E+02 -1.771334573E+03  1.782479521E+03  1.701404623E+02  0.00000E+00  9.000E+00
       6     2     1     2   507     0 -3.997775894E+01 -1.239123327E+02 -7.085503503E+02  7.411462853E+02  1.740739208E+02  0.00000E+00  9.000E+00
     -24     2     3     3     0     0  5.834482348E+01  4.211484647E+01 -1.291490700E+03  1.295954002E+03  7.981710274E+01  0.00000E+00  9.000E+00
      24     2     4     4     0     0 -4.578072930E+01 -5.992281150E+01 -6.188038892E+02  6.303713957E+02  9.361209698E+01  0.00000E+00  9.000E+00
     -11     1     6     6     0     0  1.862837293E+01 -2.973315986E+01 -3.681872030E+02  3.698552332E+02  0.000000000E+00  0.00000E+00  9.000E+00
      12     1     6     6     0     0 -6.440910222E+01 -3.018965164E+01 -2.506166862E+02  2.605161625E+02  8.092194914E-06  0.00000E+00  9.000E+00
      13     1     5     5     0     0  9.194239918E+00  2.181676206E+01 -8.344672676E+01  8.674019462E+01  0.000000000E+00  0.00000E+00  9.000E+00
     -14     1     5     5     0     0  4.915058356E+01  2.029808441E+01 -1.208043973E+03  1.209213807E+03  3.737624730E-05  0.00000E+00  9.000E+00
       5     1     4     4   513     0  5.902532581E+00 -5.348956569E+01 -7.013662840E+01  8.853068774E+01  4.750000000E+00  0.00000E+00  9.000E+00
      -5     1     3     3     0   512 -2.059076073E+01  2.639591893E+01 -2.491209636E+02  2.514051331E+02  4.750000000E+00  0.00000E+00  9.000E+00
      21     1     1     2   501   511  3.164216503E+01  2.100552009E+01 -5.429204485E+02  5.442472525E+02  1.078959322E-05  0.00000E+00  9.000E+00
      21     1     3     3   512   502 -2.941846885E+01  3.439604725E+01 -2.307229101E+02  2.351203854E+02  4.672030912E-06  0.00000E+00  9.000E+00
      21     1     4     4   507   513 -9.956222152E-02 -1.049995554E+01 -1.960983266E+01  2.224420185E+01  4.768371582E-07  0.00000E+00  9.000E+00
#rwgt            1          17   153.83198920205962                1     1332824           0       11110           0
<weights>
0.16281E+02
</weights>
</event>
<event>
     15  10001  1.35503E+01  1.49874E+02 -1.00000E+00  4.03490E-01
       1    -1     0     0   502     0  0.000000000E+00  0.000000000E+00  2.639265759E+03  2.639265759E+03  0.000000000E+00  0.00000E+00  9.000E+00
      21    -1     0     0   507   502  0.000000000E+00  0.000000000E+00 -1.007532680E+02  1.007532680E+02  0.000000000E+00  0.00000E+00  9.000E+00
      -6     2     1     2     0   501 -4.723394501E+01 -1.338263601E+02  3.245793741E+02  3.856862562E+02  1.525174675E+02  0.00000E+00  9.000E+00
       6     2     1     2   507     0  6.367395934E+01  2.827957792E+02  3.573516775E+02  4.917118210E+02  1.733564755E+02  0.00000E+00  9.000E+00
     -24     2     3     3     0     0 -2.238693750E+01 -1.440361761E+02  2.107058629E+02  2.683821970E+02  7.990274108E+01  0.00000E+00  9.000E+00
      24     2     4     4     0     0  6.141677343E+01  1.199406435E+02  9.443445097E+01  1.823764716E+02  7.864816491E+01  0.00000E+00  9.000E+00
     -11     1     6     6     0     0 -2.018837582E+00  6.225556281E+01  6.896886908E+01  9.293296351E+01  0.000000000E+00  0.00000E+00  9.000E+00
      12     1     6     6     0     0  6.343561102E+01  5.768508069E+01  2.546558190E+01  8.944350809E+01  5.415829035E-06  0.00000E+00  9.000E+00
      13     1     5     5     0     0 -1.770076123E+01 -1.144543864E+02  2.083041885E+02  2.383353907E+02  0.000000000E+00  0.00000E+00  9.000E+00
     -14     1     5     5     0     0 -4.686176275E+00 -2.958178968E+01  2.401674357E+00  3.004680630E+01  1.468199246E-06  0.00000E+00  9.000E+00
       5     1     4     4   512     0  1.297301976E+00  1.426778724E+02  2.318353456E+02  2.722661350E+02  4.750000000E+00  0.00000E+00  9.000E+00
      -5     1     3     3     0   511 -2.466711432E+01  1.034249998E+01  1.059476633E+02  1.093750598E+02  4.750000000E+00  0.00000E+00  9.000E+00
       1     1     1     2   501     0 -1.644001433E+01 -1.489694191E+02  1.856581440E+03  1.862620950E+03  0.000000000E+00  0.00000E+00  9.000E+00
      21     1     3     3   511   501 -1.798931842E-01 -1.326840329E-01  7.925847928E+00  7.928999431E+00  0.000000000E+00  0.00000E+00  9.000E+00
      21     1     4     4   507   512  9.598839346E-01  2.017726332E+01  3.108188093E+01  3.706921437E+01  0.000000000E+00  0.00000E+00  9.000E+00
#rwgt            1          17   10.641109972670348                1     1341112           0       11110           0
<weights>
0.17435E+02
</weights>
</event>
<event>
     13  10001  1.35503E+01  1.32983E+02 -1.00000E+00  1.18505E-01
      21    -1     0     0   502   501  0.000000000E+00  0.000000000E+00  1.770198417E+03  1.770198417E+03  0.000000000E+00  0.00000E+00  9.000E+00
      21    -1     0     0   511   502  0.000000000E+00  0.000000000E+00 -1.788609885E+02  1.788609885E+02  0.000000000E+00  0.00000E+00  9.000E+00
      -6     2     1     2     0   501  3.057073678E+01  3.996137403E+01  1.546847416E+03  1.557649965E+03  1.760823736E+02  0.00000E+00  9.000E+00
       6     2     1     2   507     0 -1.498366518E+02 -9.878321221E+01 -2.021905915E+01  2.435188362E+02  1.633507514E+02  0.00000E+00  9.000E+00
     -24     2     3     3     0     0  2.229803005E+01  6.859888068E+01  5.625691663E+02  5.729089937E+02  8.085567099E+01  0.00000E+00  9.000E+00
      24     2     4     4     0     0 -2.354774648E+01 -3.975149271E+00 -1.618102637E+01  8.547983907E+01  8.046539068E+01  0.00000E+00  9.000E+00
     -11     1     6     6     0     0 -2.378334715E+00 -3.536244347E+01 -2.869924397E+01  4.560488448E+01  0.000000000E+00  0.00000E+00  9.000E+00
      12     1     6     6     0     0 -2.116941176E+01  3.138729420E+01  1.251821760E+01  3.987495459E+01  1.215700987E-06  0.00000E+00  9.000E+00
      13     1     5     5     0     0 -1.900056993E+00  2.731102477E+01  4.468052767E+02  4.476432257E+02  0.000000000E+00  0.00000E+00  9.000E+00
     -14     1     5     5     0     0  2.419808705E+01  4.128785591E+01  1.157638897E+02  1.252657679E+02  1.907348633E-06  0.00000E+00  9.000E+00
       5     1     4     4   507     0 -1.262889053E+02 -9.480806293E+01 -4.038032773E+00  1.580389971E+02  4.750000000E+00  0.00000E+00  9.000E+00
      -5     1     3     3     0   501  8.272706730E+00 -2.863750665E+01  9.842782496E+02  9.847409709E+02  4.750000000E+00  0.00000E+00  9.000E+00
      21     1     1     2   511   507  1.192659150E+02  5.882183817E+01  6.470907211E+01  1.478906053E+02  2.523185073E-06  0.00000E+00  9.000E+00
#rwgt            2         113   3.3068495640336417                1     1353639           0           1           0
<weights>
0.13550E+02
</weights>
</event>
<event>
     14  10001  1.35503E+01  3.52368E+01 -1.00000E+00  7.24903E-01
      -1    -1     0     0     0   501  0.000000000E+00  0.000000000E+00  1.431506322E+02  1.431506322E+02  0.000000000E+00  0.00000E+00  9.000E+00
       1    -1     0     0   512     0  0.000000000E+00  0.000000000E+00 -4.867442056E+02  4.867442056E+02  0.000000000E+00  0.00000E+00  9.000E+00
      -6     2     1     2     0   501 -1.459472698E+02 -2.010863740E+01 -3.064100232E+02  3.754159765E+02  1.592014141E+02  0.00000E+00  9.000E+00
       6     2     1     2   507     0  1.281345246E+02 -1.029425567E+01 -4.227178411E+01  2.188766153E+02  1.720338365E+02  0.00000E+00  9.000E+00
     -24     2     3     3     0     0 -8.535164617E+01 -3.081041758E+01 -2.857454143E+02  3.103318290E+02  8.013249614E+01  0.00000E+00  9.000E+00
      24     2     4     4     0     0  6.968014589E+01 -6.058278325E+01 -6.411221163E+01  1.373502099E+02  7.892469909E+01  0.00000E+00  9.000E+00
     -11     1     6     6     0     0  8.406169654E+01 -3.941458280E+01 -3.665832807E+01  9.981839098E+01  0.000000000E+00  0.00000E+00  9.000E+00
      12     1     6     6     0     0 -1.438155065E+01 -2.116820045E+01 -2.745388356E+01  3.753181893E+01  1.348699152E-06  0.00000E+00  9.000E+00
      13     1     5     5     0     0 -2.132300950E+01  1.386864847E+01 -1.622074408E+02  1.641897195E+02  0.000000000E+00  0.00000E+00  9.000E+00
     -14     1     5     5     0     0 -6.402863667E+01 -4.467906605E+01 -1.235379735E+02  1.461421095E+02  3.303624740E-06  0.00000E+00  9.000E+00
       5     1     4     4   513     0  4.166339327E+01  4.103669779E+01  2.106704220E+01  6.233964767E+01  4.750000000E+00  0.00000E+00  9.000E+00
      -5     1     3     3     0   501 -6.059562360E+01  1.070178018E+01 -2.066460886E+01  6.508414752E+01  4.750000000E+00  0.00000E+00  9.000E+00
      21     1     1     2   512   507  1.781274514E+01  3.040289307E+01  5.088233820E+00  3.560224599E+01  9.848303581E-07  0.00000E+00  9.000E+00
      21     1     4     4   507   513  1.679098547E+01  9.251829779E+00  7.733853271E-01  1.918675773E+01  4.572253225E-07  0.00000E+00  9.000E+00
#rwgt            1           2  0.37285880655630060                1     1353742           0         110           0
<weights>
0.14281E+02
</weights>
</event>
<event>
     14  10001  1.35503E+01  6.69302E+01 -1.00000E+00  6.98473E-01
      21    -1     0     0   511   501  0.000000000E+00  0.000000000E+00  8.800770825E+01  8.800770825E+01  0.000000000E+00  0.00000E+00  9.000E+00
       1    -1     0     0   507     0  0.000000000E+00  0.000000000E+00 -9.229403175E+02  9.229403175E+02  0.000000000E+00  0.00000E+00  9.000E+00
      -6     2     1     2     0   501  7.148834067E+01  1.279858170E+02 -6.342385208E+02  6.733732957E+02  1.722850600E+02  0.00000E+00  9.000E+00
       6     2     1     2   507     0 -5.574051347E+01 -6.293466164E+01 -1.896409979E+02  2.697380313E+02  1.724155474E+02  0.00000E+00  9.000E+00
     -24     2     3     3     0     0  2.362995267E+01  6.165248550E+01 -1.502806346E+02  1.825287844E+02  7.983160007E+01  0.00000E+00  9.000E+00
      24     2     4     4     0     0 -9.384355498E+01 -2.263254378E+01 -1.613766201E+02  2.051786621E+02  8.207938232E+01  0.00000E+00  9.000E+00
     -11     1     6     6     0     0 -9.741477196E+01 -2.904434447E+01 -9.740323512E+01  1.407856596E+02  0.000000000E+00  0.00000E+00  9.000E+00
      12     1     6     6     0     0  3.571216982E+00  6.411800686E+00 -6.397338497E+01  6.439300244E+01  9.536743164E-07  0.00000E+00  9.000E+00
      13     1     5     5     0     0 -2.793749406E+01  2.390174248E+01 -7.678115856E+01  8.513015434E+01  0.000000000E+00  0.00000E+00  9.000E+00
     -14     1     5     5     0     0  5.156744673E+01  3.775074302E+01 -7.349947605E+01  9.739863008E+01  9.536743164E-07  0.00000E+00  9.000E+00
       5     1     4     4   512     0  3.023478375E+01 -3.339852080E+01 -1.512265196E+01  4.775835469E+01  4.750000000E+00  0.00000E+00  9.000E+00
      -5     1     3     3     0   501  4.785838800E+01  6.633333154E+01 -4.839578862E+02  4.908445113E+02  4.750000000E+00  0.00000E+00  9.000E+00
       1     1     1     2   511     0 -1.574782720E+01 -6.505115540E+01 -1.105309055E+01  6.783669871E+01  0.000000000E+00  0.00000E+00  9.000E+00
      21     1     4     4   507   512  7.868257756E+00 -6.903597052E+00 -1.314172584E+01  1.680101456E+01  0.000000000E+00  0.00000E+00  9.000E+00
#rwgt            1           2  0.76975614268039938                1     1356669           0         110           0
<weights>
0.20030E+02
</weights>
</event>
<event>
     15  10001  1.35503E+01  1.88675E+01 -1.00000E+00  4.99024E-01
      21    -1     0     0   512   501  0.000000000E+00  0.000000000E+00  4.788501764E+02  4.788501764E+02  0.000000000E+00  0.00000E+00  9.000E+00
      21    -1     0     0   507   502  0.000000000E+00  0.000000000E+00 -9.960341784E+01  9.960341784E+01  0.000000000E+00  0.00000E+00  9.000E+00
      -6     2     1     2     0   501  3.237256627E+01 -4.979131212E+01  1.542546587E+02  2.525507980E+02  1.909456677E+02  0.00000E+00  9.000E+00
       6     2     1     2   507     0 -1.950007924E+01  3.599703727E+01  1.082319434E+02  2.076280438E+02  1.723926078E+02  0.00000E+00  9.000E+00
     -24     2     3     3     0     0  4.351314084E+00  3.451914623E+01  1.789732181E+01  8.971310016E+01  8.073178322E+01  0.00000E+00  9.000E+00
      24     2     4     4     0     0 -6.218417604E+01 -8.474003644E+00  8.787953469E+01  1.325111463E+02  7.679655450E+01  0.00000E+00  9.000E+00
     -11     1     6     6     0     0  1.650709504E+01 -8.654317655E+00  7.695923886E+00  2.016453930E+01  0.000000000E+00  0.00000E+00  9.000E+00
      12     1     6     6     0     0 -7.869127108E+01  1.803140114E-01  8.018361080E+01  1.123466070E+02  1.348699152E-06  0.00000E+00  9.000E+00
      13     1     5     5     0     0 -2.885133789E+01  2.061468545E+01  3.503258177E+01  4.984623094E+01  0.000000000E+00  0.00000E+00  9.000E+00
     -14     1     5     5     0     0  3.320265197E+01  1.390446078E+01 -1.713525996E+01  3.986686922E+01  1.066240300E-06  0.00000E+00  9.000E+00
       5     1     4     4   511     0  4.566563402E+01  4.426600959E+01  1.026604290E+01  6.459708872E+01  4.750000000E+00  0.00000E+00  9.000E+00
      -5     1     3     3     0   513  2.264270940E+01 -6.717475850E+01  1.093678600E+02  1.304186788E+02  4.750000000E+00  0.00000E+00  9.000E+00
      21     1     1     2   512   502 -1.287248704E+01  1.379427484E+01  1.167601563E+02  1.182747524E+02  3.303624740E-06  0.00000E+00  9.000E+00
      21     1     4     4   507   511 -2.981537216E+00  2.050313321E-01  1.008636585E+01  1.051980884E+01  2.665600750E-07  0.00000E+00  9.000E+00
      21     1     3     3   513   501  5.378542791E+00 -1.713569985E+01  2.698947692E+01  3.241901905E+01  5.840038640E-07  0.00000E+00  9.000E+00
#rwgt            1          17   36.431737552033567                1     1360344           0       11011           0
<weights>
0.13006E+02
</weights>
</event>
<event>
     14  10001  1.35503E+01  2.42818E+01 -1.00000E+00  3.86339E-01
      21    -1     0     0   511   501  0.000000000E+00  0.000000000E+00  1.137378282E+03  1.137378282E+03  0.000000000E+00  0.00000E+00  9.000E+00
      21    -1     0     0   501   502  0.000000000E+00  0.000000000E+00 -1.579501433E+02  1.579501433E+02  0.000000000E+00  0.00000E+00  9.000E+00
      -6     2     1     2     0   502  3.268180744E+01  1.983117208E+02 -9.270279486E+00  2.659692032E+02  1.739483826E+02  0.00000E+00  9.000E+00
       6     2     1     2   507     0 -1.949277948E+01 -1.779240436E+02  7.627871613E+02  8.021467581E+02  1.719250837E+02  0.00000E+00  9.000E+00
     -24     2     3     3     0     0  7.967256911E+01  1.547193542E+02  2.388301430E+01  1.929653404E+02  7.987131771E+01  0.00000E+00  9.000E+00
      24     2     4     4     0     0 -5.577536992E+01 -1.735203203E+02  7.120069386E+02  7.394011394E+02  8.087008698E+01  0.00000E+00  9.000E+00
     -11     1     6     6     0     0  9.793059730E+00 -1.007277563E+01  1.448917740E+02  1.455712575E+02  0.000000000E+00  0.00000E+00  9.000E+00
      12     1     6     6     0     0 -6.556842965E+01 -1.634475446E+02  5.671151646E+02  5.938298819E+02  0.000000000E+00  0.00000E+00  9.000E+00
      13     1     5     5     0     0  7.318148174E+01  7.479978939E+01 -1.159322114E+01  1.052850442E+02  0.000000000E+00  0.00000E+00  9.000E+00
     -14     1     5     5     0     0  6.491087366E+00  7.991956485E+01  3.547623544E+01  8.768029620E+01  3.784777609E-06  0.00000E+00  9.000E+00
       5     1     4     4   507     0  3.628259044E+01 -4.403723389E+00  5.078022274E+01  6.274561873E+01  4.750000000E+00  0.00000E+00  9.000E+00
      -5     1     3     3     0   512 -4.639074479E+01  4.011898965E+01 -3.126201982E+01  6.900370219E+01  4.750000000E+00  0.00000E+00  9.000E+00
      21     1     1     2   511   507 -1.318902795E+01 -2.038767711E+01  2.259112569E+02  2.272124640E+02  3.814697266E-06  0.00000E+00  9.000E+00
      21     1     3     3   512   502 -6.000168838E-01  3.473376870E+00 -1.891273963E+00  4.000160540E+00  1.800514158E-07  0.00000E+00  9.000E+00
#rwgt            1          17   17.932735755967730                1     1365605           0         111           0
<weights>
0.13475E+02
</weights>
</event>
<event>
     13  10001  1.35503E+01  7.15510E+00 -1.00000E+00  2.14217E-01
      21    -1     0     0   502   501  0.000000000E+00  0.000000000E+00  3.410092087E+01  3.410092087E+01  0.000000000E+00  0.00000E+00  9.000E+00
      21    -1     0     0   507   512  0.000000000E+00  0.000000000E+00 -2.616034858E+03  2.616034858E+03  0.000000000E+00  0.00000E+00  9.000E+00
      -6     2     1     2     0   501  5.946303097E+01 -1.718567069E+02 -5.754566828E+02  6.276882691E+02  1.725444571E+02  0.00000E+00  9.000E+00
       6     2     1     2   507     0 -5.715850865E+01  1.650828909E+02 -1.900902320E+03  1.916630393E+03  1.718225182E+02  0.00000E+00  9.000E+00
     -24     2     3     3     0     0  7.629176858E+01 -1.545795085E+02 -5.720561002E+02  6.028722570E+02  8.056995820E+01  0.00000E+00  9.000E+00
      24     2     4     4     0     0 -9.496050601E+00  1.269865859E+02 -8.030099290E+02  8.170335111E+02  8.064145433E+01  0.00000E+00  9.000E+00
     -11     1     6     6     0     0 -7.808965142E+00  1.804112165E+01 -2.692854572E+01  3.334079456E+01  0.000000000E+00  0.00000E+00  9.000E+00
      12     1     6     6     0     0 -1.687085459E+00  1.089454643E+02 -7.760813833E+02  7.836927166E+02  0.000000000E+00  0.00000E+00  9.000E+00
      13     1     5     5     0     0  3.397611224E+01 -1.355246065E+02 -4.778228448E+02  4.978312627E+02  0.000000000E+00  0.00000E+00  9.000E+00
     -14     1     5     5     0     0  4.231565633E+01 -1.905490198E+01 -9.423325541E+01  1.050409943E+02  0.000000000E+00  0.00000E+00  9.000E+00
       5     1     4     4   507     0 -4.766245805E+01  3.809630501E+01 -1.097892391E+03  1.099596882E+03  4.750000000E+00  0.00000E+00  9.000E+00
      -5     1     3     3     0   501 -1.682873761E+01 -1.727719839E+01 -3.400582639E+00  2.481601209E+01  4.750000000E+00  0.00000E+00  9.000E+00
      21     1     1     2   502   512 -2.304522319E+00  6.773815971E+00 -1.055749337E+02  1.058171159E+02  1.907348633E-06  0.00000E+00  9.000E+00
#rwgt            2         113   333.81347556189070                1     1375318           0           1           0
<weights>
0.13550E+02
</weights>
</event>
<event>
     14  10001  1.35503E+01  8.07523E+01 -1.00000E+00  7.52146E-01
      21    -1     0     0   502   501  0.000000000E+00  0.000000000E+00  5.259842215E+01  5.259842215E+01  0.000000000E+00  0.00000E+00  9.000E+00
      21    -1     0     0   511   502  0.000000000E+00  0.000000000E+00 -2.234421220E+03  2.234421220E+03  0.000000000E+00  0.00000E+00  9.000E+00
      -6     2     1     2     0   501  5.243084296E+00 -9.652456877E+01 -8.389694541E+02  8.620688072E+02  1.730560637E+02  0.00000E+00  9.000E+00
       6     2     1     2   507     0  3.360564420E+01  1.673179946E+02 -1.327144073E+03  1.342684718E+03  1.112034665E+02  0.00000E+00  9.000E+00
     -24     2     3     3     0     0 -1.587191167E+01 -4.209811245E+01 -1.916292112E+02  2.120841653E+02  7.895422675E+01  0.00000E+00  9.000E+00
      24     2     4     4     0     0  2.222031895E+01  1.704148179E+02 -1.206993387E+03  1.221787336E+03  7.997691382E+01  0.00000E+00  9.000E+00
     -11     1     6     6     0     0 -2.803905408E+00  7.971002305E+01 -8.043961403E+02  8.083407080E+02  0.000000000E+00  0.00000E+00  9.000E+00
      12     1     6     6     0     0  2.502422436E+01  9.070479484E+01 -4.025972466E+02  4.134466284E+02  5.394796609E-06  0.00000E+00  9.000E+00
      13     1     5     5     0     0 -3.184355930E+01 -3.565352594E+01 -1.886413536E+02  1.946040761E+02  0.000000000E+00  0.00000E+00  9.000E+00
     -14     1     5     5     0     0  1.597164764E+01 -6.444586508E+00 -2.987857679E+00  1.748008916E+01  1.533589402E-06  0.00000E+00  9.000E+00
       5     1     4     4   513     0  9.725824689E+00 -2.424589117E+00 -8.790779844E+01  8.860481829E+01  4.750000000E+00  0.00000E+00  9.000E+00
      -5     1     3     3     0   501  2.111499597E+01 -5.442645632E+01 -6.473402428E+02  6.499846419E+02  4.750000000E+00  0.00000E+00  9.000E+00
      21     1     1     2   511   507 -3.884872850E+01 -7.079342580E+01 -1.570927110E+01  8.226611721E+01  4.815819234E-06  0.00000E+00  9.000E+00
      21     1     4     4   507   513  1.659500560E+00 -6.722341962E-01 -3.224288764E+01  3.229256330E+01  4.768371582E-07  0.00000E+00  9.000E+00
#rwgt            1          17   87.163801781430706                1     1376717           0         110           0
<weights>
0.17600E+02
</weights>
</event>
<event>
     15  10001  1.35503E+01  8.92447E+01 -1.00000E+00  1.58526E-01
      21    -1     0     0   507   512  0.000000000E+00  0.000000000E+00  2.799163910E+02  2.799163910E+02  0.000000000E+00  0.00000E+00  9.000E+00
      21    -1     0     0   501   502  0.000000000E+00  0.000000000E+00 -3.571156719E+02  3.571156719E+02  0.000000000E+00  0.00000E+00  9.000E+00
      -6     2     1     2     0   502 -1.299019507E+02  1.409953275E+02 -2.047117365E+00  2.618005098E+02  1.782725920E+02  0.00000E+00  9.000E+00
       6     2     1     2   507     0  4.264491853E+01 -1.222648664E+02  4.979243097E+01  2.216875154E+02  1.729126418E+02  0.00000E+00  9.000E+00
     -24     2     3     3     0     0  4.429172995E+00  2.538376869E+01 -9.669070177E+00  8.383192405E+01  7.918552447E+01  0.00000E+00  9.000E+00
      24     2     4     4     0     0 -2.659777419E+01 -1.533135358E+01  1.946771127E+01  8.801407442E+01  8.015605729E+01  0.00000E+00  9.000E+00
     -11     1     6     6     0     0 -1.873951613E+01 -1.539918987E+01 -2.962993813E+01  3.829148400E+01  0.000000000E+00  0.00000E+00  9.000E+00
      12     1     6     6     0     0 -7.858258060E+00  6.783629425E-02  4.909764940E+01  4.972259042E+01  1.507891493E-06  0.00000E+00  9.000E+00
      13     1     5     5     0     0 -7.947372480E+00 -1.202720847E+01 -3.440728092E+01  3.730516658E+01  0.000000000E+00  0.00000E+00  9.000E+00
     -14     1     5     5     0     0  1.237654548E+01  3.741097717E+01  2.473821074E+01  4.652675748E+01  1.507891493E-06  0.00000E+00  9.000E+00
       5     1     4     4   511     0  5.388447153E+00 -2.487047704E+00  3.406085215E+00  8.329747025E+00  4.750000000E+00  0.00000E+00  9.000E+00
      -5     1     3     3     0   514 -2.967465591E+01  2.463438412E+01 -2.418672649E+00  3.893392558E+01  4.750000000E+00  0.00000E+00  9.000E+00
      21     1     1     2   501   512  8.725703217E+01 -1.873046110E+01 -1.249445944E+02  1.535440377E+02  3.015782986E-06  0.00000E+00  9.000E+00
      21     1     4     4   507   511  6.385424556E+01 -1.044464651E+02  2.691863448E+01  1.253436940E+02  3.487763128E-06  0.00000E+00  9.000E+00
      21     1     3     3   514   502 -1.046564678E+02  9.097717464E+01  1.004062546E+01  1.390346601E+02  1.498437535E-06  0.00000E+00  9.000E+00
#rwgt            1          17   9.1356421900995350                1     1385687           0       11011           0
<weights>
0.21957E+02
</weights>
</event>
<event>
     13  10001  1.35503E+01  3.18635E+02 -1.00000E+00  1.04749E-01
      21    -1     0     0   507   501  0.000000000E+00  0.000000000E+00  1.013570568E+03  1.013570568E+03  0.000000000E+00  0.00000E+00  9.000E+00
      21    -1     0     0   511   502  0.000000000E+00  0.000000000E+00 -3.309051569E+02  3.309051569E+02  0.000000000E+00  0.00000E+00  9.000E+00
      -6     2     1     2     0   502  2.218654663E+02  1.933097993E+02 -6.244740622E+01  3.439004627E+02  1.666579914E+02  0.00000E+00  9.000E+00
       6     2     1     2   507     0 -3.554993706E+01  6.517553739E+01  6.371345459E+02  6.641418322E+02  1.721403353E+02  0.00000E+00  9.000E+00
     -24     2     3     3     0     0  6.255917580E+01  9.818790001E+01 -7.622127016E+01  1.577850369E+02  7.437688925E+01  0.00000E+00  9.000E+00
      24     2     4     4     0     0  2.190983817E+01  8.925382855E+01  4.578547788E+02  4.742861311E+02  8.288575707E+01  0.00000E+00  9.000E+00
     -11     1     6     6     0     0 -8.795487693E+00 -1.252516567E+01  9.329310173E+01  9.454016717E+01  0.000000000E+00  0.00000E+00  9.000E+00
      12     1     6     6     0     0  3.070532586E+01  1.017789942E+02  3.645616771E+02  3.797459639E+02  0.000000000E+00  0.00000E+00  9.000E+00
      13     1     5     5     0     0  1.687262810E+01  6.364960324E+01 -4.499166284E+00  6.600151566E+01  0.000000000E+00  0.00000E+00  9.000E+00
     -14     1     5     5     0     0  4.568654770E+01  3.453829677E+01 -7.172210387E+01  9.178352123E+01  2.132480600E-06  0.00000E+00  9.000E+00
       5     1     4     4   507     0 -5.745977523E+01 -2.407829116E+01  1.792797671E+02  1.898557011E+02  4.750000000E+00  0.00000E+00  9.000E+00
      -5     1     3     3     0   502  1.593062905E+02  9.512189930E+01  1.377386394E+01  1.861154259E+02  4.750000000E+00  0.00000E+00  9.000E+00
      21     1     1     2   511   501 -1.863155292E+02 -2.584853367E+02  1.079782714E+02  3.364334300E+02  3.814697266E-06  0.00000E+00  9.000E+00
#rwgt            2         113   1.9070756992863216                1     1394278           0           1           0
<weights>
0.13550E+02
</weights>
</event>
<event>
     13  10001  1.35503E+01  4.11519E+01 -1.00000E+00  7.51659E-01
      21    -1     0     0   507   512  0.000000000E+00  0.000000000E+00  2.857866047E+02  2.857866047E+02  0.000000000E+00  0.00000E+00  9.000E+00
      21    -1     0     0   501   502  0.000000000E+00  0.000000000E+00 -1.599067873E+02  1.599067873E+02  0.000000000E+00  0.00000E+00  9.000E+00
      -6     2     1     2     0   502 -4.260714848E+01  6.320652822E+01  1.267984048E+02  2.272518926E+02  1.724968200E+02  0.00000E+00  9.000E+00
       6     2     1     2   507     0  1.637227838E+01 -3.150148221E+01  7.176048926E+00  1.765010476E+02  1.727446939E+02  0.00000E+00  9.000E+00
     -24     2     3     3     0     0 -8.112767536E+01  8.935594682E+01  7.506808385E+01  1.574936551E+02  6.784430156E+01  0.00000E+00  9.000E+00
      24     2     4     4     0     0 -7.159190073E+00  2.609200110E+01 -4.950327936E+01  9.220485507E+01  7.293225697E+01  0.00000E+00  9.000E+00
     -11     1     6     6     0     0  1.657802530E+01  1.953763702E+01  1.023365305E+01  2.759126380E+01  0.000000000E+00  0.00000E+00  9.000E+00
      12     1     6     6     0     0 -2.373721537E+01  6.554364083E+00 -5.973693242E+01  6.461359127E+01  1.507891493E-06  0.00000E+00  9.000E+00
      13     1     5     5     0     0  8.753210951E+00  2.679207465E+01  2.225289726E+01  3.591135479E+01  0.000000000E+00  0.00000E+00  9.000E+00
     -14     1     5     5     0     0 -8.988088631E+01  6.256387217E+01  5.281518659E+01  1.215823003E+02  1.507891493E-06  0.00000E+00  9.000E+00
       5     1     4     4   507     0  2.353146845E+01 -5.759348331E+01  5.667932829E+01  8.429619258E+01  4.750000000E+00  0.00000E+00  9.000E+00
      -5     1     3     3     0   502  3.852052687E+01 -2.614941860E+01  5.173032094E+01  6.975823742E+01  4.750000000E+00  0.00000E+00  9.000E+00
      21     1     1     2   501   512  2.623487010E+01 -3.170504601E+01 -8.094636316E+00  4.194045170E+01  0.000000000E+00  0.00000E+00  9.000E+00
#rwgt            1          17   19.401407515671615                1     1396013           0           1           0
<weights>
0.13765E+02
</weights>
</event>
<event>
     15  10001 -1.35503E+01  4.84260E+00 -1.00000E+00  2.55293E-01
      21    -1     0     0   511   501  0.000000000E+00  0.000000000E+00  1.115577343E+02  1.115577343E+02  0.000000000E+00  0.00000E+00  9.000E+00
      21    -1     0     0   501   502  0.000000000E+00  0.000000000E+00 -1.267678443E+03  1.267678443E+03  0.000000000E+00  0.00000E+00  9.000E+00
      -6     2     1     2     0   502  4.743653271E+00 -2.906978549E+01 -1.143853553E+03  1.157282398E+03  1.733033247E+02  0.00000E+00  9.000E+00
       6     2     1     2   507     0 -8.630668487E+00  2.618155762E+01 -5.814083242E+01  1.758252087E+02  1.636281920E+02  0.00000E+00  9.000E+00
     -24     2     3     3     0     0 -1.645207728E+01 -5.544423217E+01 -3.872259012E+02  3.998305454E+02  8.109150839E+01  0.00000E+00  9.000E+00
      24     2     4     4     0     0 -3.869287002E+01 -2.752996147E+01  4.412266569E+00  8.731799002E+01  7.314319050E+01  0.00000E+00  9.000E+00
     -11     1     6     6     0     0 -5.028373634E+01  6.282954618E+00  8.347345326E+00  5.135764629E+01  0.000000000E+00  0.00000E+00  9.000E+00
      12     1     6     6     0     0  1.159086631E+01 -3.381291609E+01 -3.935078757E+00  3.596034373E+01  1.092571186E-06  0.00000E+00  9.000E+00
      13     1     5     5     0     0  1.906995127E+01 -5.384481130E+01 -1.611285769E+02  1.709542191E+02  0.000000000E+00  0.00000E+00  9.000E+00
     -14     1     5     5     0     0 -3.552202855E+01 -1.599420864E+00 -2.260973244E+02  2.288763263E+02  2.697398305E-06  0.00000E+00  9.000E+00
       5     1     4     4   513     0  2.775201259E+01  5.321389830E+01 -5.947970931E+01  8.463032255E+01  4.750000000E+00  0.00000E+00  9.000E+00
      -5     1     3     3     0   512  1.736291662E+01  1.872089106E+01 -6.300932748E+02  6.306282899E+02  4.750000000E+00  0.00000E+00  9.000E+00
      21     1     1     2   511   507  3.887015216E+00  2.888227868E+00  4.587367731E+01  4.612857051E+01  3.693564745E-06  0.00000E+00  9.000E+00
      21     1     3     3   512   502  3.832813932E+00  7.653555621E+00 -1.265343775E+02  1.268235627E+02  0.000000000E+00  0.00000E+00  9.000E+00
      21     1     4     4   507   513  2.310188950E+00  4.976207950E-01 -3.073389675E+00  3.876896121E+00  4.214684851E-08  0.00000E+00  9.000E+00
#rwgt            1          17  -34.954125202604345                1     1409486           0       11110           0
<weights>
-.16767E+02
</weights>
</event>
<event>
     15  10001 -1.35503E+01  7.62804E+01 -1.00000E+00  1.75254E-01
      21    -1     0     0   512   501  0.000000000E+00  0.000000000E+00  7.249725150E+02  7.249725150E+02  0.000000000E+00  0.00000E+00  9.000E+00
      21    -1     0     0   501   502  0.000000000E+00  0.000000000E+00 -2.588212003E+02  2.588212003E+02  0.000000000E+00  0.00000E+00  9.000E+00
      -6     2     1     2     0   502  1.304946295E+02 -2.050863822E+02 -5.822538924E+01  3.040601342E+02  1.731274004E+02  0.00000E+00  9.000E+00
       6     2     1     2   507     0 -5.800711277E+01  2.288404227E+02  5.280159469E+02  6.033664507E+02  1.718064884E+02  0.00000E+00  9.000E+00
     -24     2     3     3     0     0  2.618885065E+00 -1.136696341E+02 -2.688821949E+01  1.395355554E+02  7.628597918E+01  0.00000E+00  9.000E+00
      24     2     4     4     0     0  1.657511941E+01  1.904264478E+02  3.826433995E+02  4.350900454E+02  7.968945844E+01  0.00000E+00  9.000E+00
     -11     1     6     6     0     0 -8.828080278E+00  1.160158813E+02  1.520477454E+02  1.914579238E+02  0.000000000E+00  0.00000E+00  9.000E+00
      12     1     6     6     0     0  2.540319969E+01  7.441056658E+01  2.305956541E+02  2.436321216E+02  0.000000000E+00  0.00000E+00  9.000E+00
      13     1     5     5     0     0 -3.122411877E+00  1.004907115E+01  4.991109246E+00  1.164665010E+01  0.000000000E+00  0.00000E+00  9.000E+00
     -14     1     5     5     0     0  5.741296942E+00 -1.237187052E+02 -3.187932873E+01  1.278889053E+02  3.799766886E-06  0.00000E+00  9.000E+00
       5     1     4     4   514     0 -7.439636768E+01  3.837441559E+01  1.455778280E+02  1.679966720E+02  4.750000000E+00  0.00000E+00  9.000E+00
      -5     1     3     3     0   511  1.103367864E+02 -6.050303075E+01 -2.602448040E+01  1.285871659E+02  4.750000000E+00  0.00000E+00  9.000E+00
      21     1     1     2   512   507 -7.248751671E+01 -2.375404042E+01 -3.639242879E+00  7.636713039E+01  1.413019847E-06  0.00000E+00  9.000E+00
      21     1     3     3   511   502  1.753895807E+01 -3.091371744E+01 -5.312689355E+00  3.593741287E+01  3.526258339E-07  0.00000E+00  9.000E+00
      21     1     4     4   507   514 -1.858644999E-01  3.955923446E-02 -2.052806702E-01  2.797332639E-01  2.956857507E-08  0.00000E+00  9.000E+00
#rwgt            1          17  -20.318021695502903                1     1419229           0       11110           0
<weights>
-.17319E+02
</weights>
</event>
<event>
     15  10001  1.35503E+01  2.11505E+01 -1.00000E+00  1.74393E-01
      21    -1     0     0   511   501  0.000000000E+00  0.000000000E+00  9.268404815E+01  9.268404815E+01  0.000000000E+00  0.00000E+00  9.000E+00
      21    -1     0     0   507   502  0.000000000E+00  0.000000000E+00 -1.131470325E+03  1.131470325E+03  0.000000000E+00  0.00000E+00  9.000E+00
      -6     2     1     2     0   501  1.603583753E+02  1.345104659E+02 -3.136107201E+02  4.144921389E+02  1.721748398E+02  0.00000E+00  9.000E+00
       6     2     1     2   507     0 -1.497212819E+02 -1.527914374E+02 -4.133100379E+02  4.970803354E+02  1.746481800E+02  0.00000E+00  9.000E+00
     -24     2     3     3     0     0  1.138249558E+02  2.152352364E+01 -1.415493194E+02  2.003108897E+02  8.166308869E+01  0.00000E+00  9.000E+00
      24     2     4     4     0     0 -1.392774459E+02 -1.686232200E+02 -4.152677862E+02  4.762050604E+02  8.057250201E+01  0.00000E+00  9.000E+00
     -11     1     6     6     0     0 -5.126963925E+01 -1.116354107E+01 -1.024050277E+02  1.150651566E+02  0.000000000E+00  0.00000E+00  9.000E+00
      12     1     6     6     0     0 -8.800780666E+01 -1.574596789E+02 -3.128627585E+02  3.611399038E+02  8.529922400E-06  0.00000E+00  9.000E+00
      13     1     5     5     0     0  4.428144075E+01 -3.221806715E-01 -1.141484512E+02  1.224369989E+02  0.000000000E+00  0.00000E+00  9.000E+00
     -14     1     5     5     0     0  6.954351505E+01  2.184570431E+01 -2.740086827E+01  7.787389077E+01  2.236564522E-06  0.00000E+00  9.000E+00
       5     1     4     4   513     0 -9.709964608E+00  1.558432909E+01  2.141591113E-01  1.896742181E+01  4.750000000E+00  0.00000E+00  9.000E+00
      -5     1     3     3     0   512  2.722580441E+01  9.842064933E+01 -1.269278404E+02  1.629757891E+02  4.750000000E+00  0.00000E+00  9.000E+00
      21     1     1     2   511   502 -1.063709342E+01  1.828097154E+01 -3.118655191E+02  3.125818992E+02  7.629394531E-06  0.00000E+00  9.000E+00
      21     1     3     3   512   501  1.930761511E+01  1.456629290E+01 -4.513356023E+01  5.120546016E+01  4.768371582E-07  0.00000E+00  9.000E+00
      21     1     4     4   507   513 -7.338713901E-01  2.474534491E-01  1.743589167E+00  1.907853142E+00  1.800514158E-07  0.00000E+00  9.000E+00
#rwgt            1          17   12.875189793285108                1     1427213           0       11110           0
<weights>
0.16573E+02
</weights>
</event>
<event>
     15  10001  1.35503E+01  2.03591E+02 -1.00000E+00  2.62909E-01
      21    -1     0     0   507   512  0.000000000E+00  0.000000000E+00  5.195697438E+02  5.195697438E+02  0.000000000E+00  0.00000E+00  9.000E+00
      21    -1     0     0   501   502  0.000000000E+00  0.000000000E+00 -3.623485616E+02  3.623485616E+02  0.000000000E+00  0.00000E+00  9.000E+00
      -6     2     1     2     0   502  6.477782765E+01  5.786483921E+01 -2.377384736E+02  3.056552945E+02  1.713507240E+02  0.00000E+00  9.000E+00
       6     2     1     2   507     0  1.035762933E+02  5.661751989E+01  1.556129387E+02  2.620398870E+02  1.746880751E+02  0.00000E+00  9.000E+00
     -24     2     3     3     0     0 -2.290558563E+01 -2.439526007E+00 -1.074663569E+02  1.366732850E+02  8.124008748E+01  0.00000E+00  9.000E+00
      24     2     4     4     0     0  1.167309953E+02 -9.008536292E+00  1.206815162E+02  1.860819451E+02  7.971940132E+01  0.00000E+00  9.000E+00
     -11     1     6     6     0     0  1.111721736E+02 -9.726286703E+00  6.304553564E+01  1.281740707E+02  0.000000000E+00  0.00000E+00  9.000E+00
      12     1     6     6     0     0  5.558821759E+00  7.177504109E-01  5.763598058E+01  5.790787444E+01  1.348699152E-06  0.00000E+00  9.000E+00
      13     1     5     5     0     0 -3.140121880E+01  3.014320523E+01 -3.196540606E+01  5.400404196E+01  0.000000000E+00  0.00000E+00  9.000E+00
     -14     1     5     5     0     0  8.495633173E+00 -3.258273124E+01 -7.550095085E+01  8.266924300E+01  2.861022949E-06  0.00000E+00  9.000E+00
       5     1     4     4   514     0 -1.372812300E+01  6.357810923E+01  3.302411709E+01  7.310124585E+01  4.750000000E+00  0.00000E+00  9.000E+00
      -5     1     3     3     0   511  8.486170848E+01  5.509126794E+01 -1.260587727E+02  1.617094124E+02  4.750000000E+00  0.00000E+00  9.000E+00
      21     1     1     2   501   512 -1.683541210E+02 -1.144823591E+02  2.393467172E+02  3.142231239E+02  8.946258087E-06  0.00000E+00  9.000E+00
      21     1     3     3   511   502  2.821704806E+00  5.213097281E+00 -4.213344022E+00  7.272597137E+00  0.000000000E+00  0.00000E+00  9.000E+00
      21     1     4     4   507   514  5.734209792E-01  2.047946955E+00  1.907305378E+00  2.856696021E+00  2.107342426E-08  0.00000E+00  9.000E+00
#rwgt            1          17   27.207493498941076                1     1432468           0       11110           0
<weights>
0.13860E+02
</weights>
</event>
<event>
     14  10001 -1.35503E+01  1.56779E+01 -1.00000E+00  2.28030E-01
      21    -1     0     0   507   511  0.000000000E+00  0.000000000E+00  9.286795683E+02  9.286795683E+02  0.000000000E+00  0.00000E+00  9.000E+00
      21    -1     0     0   501   502  0.000000000E+00  0.000000000E+00 -6.363462059E+01  6.363462059E+01  0.000000000E+00  0.00000E+00  9.000E+00
      -6     2     1     2     0   502 -5.388223245E+01 -1.095650301E+02  2.167396513E+02  3.026259379E+02  1.723327915E+02  0.00000E+00  9.000E+00
       6     2     1     2   507     0  5.775328679E+01  9.437250202E+01  6.395906621E+02  6.717510600E+02  1.730076884E+02  0.00000E+00  9.000E+00
     -24     2     3     3     0     0 -7.831850855E+01 -1.316254052E+02  1.646013121E+02  2.389528142E+02  8.090623834E+01  0.00000E+00  9.000E+00
      24     2     4     4     0     0  3.810104187E+01  2.801029579E+01  1.471843720E+02  1.744818470E+02  8.089752471E+01  0.00000E+00  9.000E+00
     -11     1     6     6     0     0  2.375276661E+01  5.608024275E+01  8.271687366E+01  1.027193688E+02  0.000000000E+00  0.00000E+00  9.000E+00
      12     1     6     6     0     0  1.434827526E+01 -2.806994697E+01  6.446749837E+01  7.176247816E+01  1.907348633E-06  0.00000E+00  9.000E+00
      13     1     5     5     0     0 -4.414095847E+01 -1.306627201E+01  6.861665540E+01  8.262806471E+01  0.000000000E+00  0.00000E+00  9.000E+00
     -14     1     5     5     0     0 -3.417755007E+01 -1.185591331E+02  9.598465671E+01  1.563247495E+02  6.180515955E-06  0.00000E+00  9.000E+00
       5     1     4     4   507     0  1.965224492E+01  6.636220623E+01  4.924062901E+02  4.972692130E+02  4.750000000E+00  0.00000E+00  9.000E+00
      -5     1     3     3     0   512  2.082252348E+01  2.057339520E+01  5.187941934E+01  5.975682994E+01  4.750000000E+00  0.00000E+00  9.000E+00
      21     1     1     2   501   511 -3.871054339E+00  1.519252810E+01  8.714634298E+00  1.793719105E+01  2.384185791E-07  0.00000E+00  9.000E+00
      21     1     3     3   512   502  3.613752616E+00  1.486979842E+00  2.589198412E-01  3.916293721E+00  3.636692423E-07  0.00000E+00  9.000E+00
#rwgt            1          17  -29.613040080772485                1     1444309           0         111           0
<weights>
-.14870E+02
</weights>
</event>
<event>
     15  10001  1.35503E+01  9.51659E+01 -1.00000E+00  5.97689E-01
      21    -1     0     0   512   501  0.000000000E+00  0.000000000E+00  5.088204237E+02  5.088204237E+02  0.000000000E+00  0.00000E+00  9.000E+00
      21    -1     0     0   507   502  0.000000000E+00  0.000000000E+00 -7.993971045E+02  7.993971045E+02  0.000000000E+00  0.00000E+00  9.000E+00
      -6     2     1     2     0   501 -3.773945812E+01  9.398740160E+01  7.517673285E+01  2.134431957E+02  1.721875671E+02  0.00000E+00  9.000E+00
       6     2     1     2   507     0  1.431937545E+01 -1.862264721E+02  3.163316919E+02  4.060823566E+02  1.730658764E+02  0.00000E+00  9.000E+00
     -24     2     3     3     0     0 -7.076826659E+01  9.103564272E+01  9.939001491E+01  1.719228085E+02  7.989644049E+01  0.00000E+00  9.000E+00
      24     2     4     4     0     0 -9.684474136E-01 -4.626057536E+01  5.373990687E+01  1.074487974E+02  8.072352662E+01  0.00000E+00  9.000E+00
     -11     1     6     6     0     0  1.269078363E+01  1.196449371E+01  4.337648325E+01  4.675173150E+01  0.000000000E+00  0.00000E+00  9.000E+00
      12     1     6     6     0     0 -1.365923104E+01 -5.822506907E+01  1.036342363E+01  6.069706591E+01  1.888630333E-06  0.00000E+00  9.000E+00
      13     1     5     5     0     0  7.393427696E+00  1.022857972E+01 -9.200804736E+00  1.561862427E+01  0.000000000E+00  0.00000E+00  9.000E+00
     -14     1     5     5     0     0 -7.816169429E+01  8.080706300E+01  1.085908196E+02  1.563041842E+02  3.568322551E-06  0.00000E+00  9.000E+00
       5     1     4     4   511     0  1.728074859E+01 -1.219704481E+02  2.169216409E+02  2.495054614E+02  4.750000000E+00  0.00000E+00  9.000E+00
      -5     1     3     3     0   513  3.012695231E+01  2.791417490E+00 -2.327283127E+01  3.846573076E+01  4.750000000E+00  0.00000E+00  9.000E+00
      21     1     1     2   512   502  2.342008267E+01  9.223907050E+01 -6.820851056E+02  6.886919759E+02  7.629394531E-06  0.00000E+00  9.000E+00
      21     1     4     4   507   511 -1.992925732E+00 -1.799544868E+01  4.567014411E+01  4.912809775E+01  0.000000000E+00  0.00000E+00  9.000E+00
      21     1     3     3   513   501  2.901856164E+00  1.603413935E-01 -9.404507813E-01  3.054656483E+00  1.825012075E-08  0.00000E+00  9.000E+00
#rwgt            1          17   32.696108457949116                1     1453360           0       11011           0
<weights>
0.13064E+02
</weights>
</event>
<event>
     15  10001  1.35503E+01  9.46646E+01 -1.00000E+00  3.25057E-01
      21    -1     0     0   511   501  0.000000000E+00  0.000000000E+00  1.062993403E+02  1.062993403E+02  0.000000000E+00  0.00000E+00  9.000E+00
      21    -1     0     0   501   502  0.000000000E+00  0.000000000E+00 -6.646806641E+02  6.646806641E+02  0.000000000E+00  0.00000E+00  9.000E+00
      -6     2     1     2     0   502  3.567080817E+01  5.177149137E+01 -1.074081689E+02  2.132554872E+02  1.731724407E+02  0.00000E+00  9.000E+00
       6     2     1     2   507     0 -9.339274282E+01 -1.268019465E+02 -3.054902221E+02  3.841541434E+02  1.716076689E+02  0.00000E+00  9.000E+00
     -24     2     3     3     0     0 -1.677226281E+00  1.076131391E+01 -1.281432699E+02  1.525571733E+02  8.206323504E+01  0.00000E+00  9.000E+00
      24     2     4     4     0     0 -4.943812462E+01 -7.139317143E+01 -2.866467525E+02  3.104848351E+02  8.181295131E+01  0.00000E+00  9.000E+00
     -11     1     6     6     0     0  1.058259612E+01 -5.576668131E+01 -1.515640471E+02  1.618442908E+02  0.000000000E+00  0.00000E+00  9.000E+00
      12     1     6     6     0     0 -6.002072074E+01 -1.562649012E+01 -1.350827055E+02  1.486405444E+02  1.907348633E-06  0.00000E+00  9.000E+00
      13     1     5     5     0     0  9.262658183E+00 -3.271217658E+01 -3.299249798E+01  4.737497499E+01  0.000000000E+00  0.00000E+00  9.000E+00
     -14     1     5     5     0     0 -1.093988446E+01  4.347349049E+01 -9.515077189E+01  1.051821983E+02  2.336015456E-06  0.00000E+00  9.000E+00
       5     1     4     4   514     0 -4.212314259E+01 -5.029453378E+01 -1.773916241E+01  6.812591029E+01  4.750000000E+00  0.00000E+00  9.000E+00
      -5     1     3     3     0   512  3.820331134E+01  3.893703555E+01  2.039348695E+01  5.842980869E+01  4.750000000E+00  0.00000E+00  9.000E+00
      21     1     1     2   511   507  5.772193465E+01  7.503045511E+01 -1.454829327E+02  1.735703738E+02  3.814697266E-06  0.00000E+00  9.000E+00
      21     1     3     3   512   502 -8.552768872E-01  2.073141916E+00  3.416139851E-01  2.268505250E+00  9.497663963E-08  0.00000E+00  9.000E+00
      21     1     4     4   507   514 -1.831475606E+00 -5.114241279E+00 -1.104307124E+00  5.543397963E+00  1.519626234E-07  0.00000E+00  9.000E+00
#rwgt            1          17   28.735331334731139                1     1461997           0       11110           0
<weights>
0.12827E+02
</weights>
</event>
<event>
     13  10001  1.35503E+01  3.61490E+01 -1.00000E+00  1.47621E-01
      21    -1     0     0   502   501  0.000000000E+00  0.000000000E+00  1.136414721E+02  1.136414721E+02  0.000000000E+00  0.00000E+00  9.000E+00
      21    -1     0     0   507   512  0.000000000E+00  0.000000000E+00 -1.524984993E+03  1.524984993E+03  0.000000000E+00  0.00000E+00  9.000E+00
      -6     2     1     2     0   501  2.889127776E+02 -1.764859614E+02 -7.185146986E+02  8.127380910E+02  1.722264351E+02  0.00000E+00  9.000E+00
       6     2     1     2   507     0 -3.147585774E+02  2.017593355E+02 -6.205505774E+02  7.450744304E+02  1.739916557E+02  0.00000E+00  9.000E+00
     -24     2     3     3     0     0  1.465924472E+02 -9.952295326E+01 -5.277346714E+02  5.625422431E+02  8.096745071E+01  0.00000E+00  9.000E+00
      24     2     4     4     0     0 -1.284365098E+02  3.093568152E+01 -1.660736310E+02  2.250085779E+02  7.480277923E+01  0.00000E+00  9.000E+00
     -11     1     6     6     0     0 -2.654392731E+00 -1.198162464E+01 -3.992907141E+01  4.177242958E+01  0.000000000E+00  0.00000E+00  9.000E+00
      12     1     6     6     0     0 -1.257821170E+02  4.291730616E+01 -1.261445596E+02  1.832361483E+02  4.046097457E-06  0.00000E+00  9.000E+00
      13     1     5     5     0     0  1.102806419E+02 -2.740006283E+01 -2.899966364E+02  3.114652991E+02  0.000000000E+00  0.00000E+00  9.000E+00
     -14     1     5     5     0     0  3.631180534E+01 -7.212289043E+01 -2.377380349E+02  2.510769440E+02  2.697398305E-06  0.00000E+00  9.000E+00
       5     1     4     4   507     0 -1.863220676E+02  1.708236540E+02 -4.544769464E+02  5.200658525E+02  4.750000000E+00  0.00000E+00  9.000E+00
      -5     1     3     3     0   501  1.423203304E+02 -7.696300814E+01 -1.907800272E+02  2.501958479E+02  4.750000000E+00  0.00000E+00  9.000E+00
      21     1     1     2   502   512  2.584579980E+01 -2.527337408E+01 -7.227824458E+01  8.081394338E+01  9.536743164E-07  0.00000E+00  9.000E+00
#rwgt            2         113  0.99035581933025663                1     1477945           0           1           0
<weights>
0.13550E+02
</weights>
</event>
<event>
     15  10001  1.35503E+01  1.08360E+02 -1.00000E+00  4.32682E-01
      21    -1     0     0   502   501  0.000000000E+00  0.000000000E+00  3.801824102E+02  3.801824102E+02  0.000000000E+00  0.00000E+00  9.000E+00
      21    -1     0     0   507   511  0.000000000E+00  0.000000000E+00 -1.928892112E+02  1.928892112E+02  0.000000000E+00  0.00000E+00  9.000E+00
      -6     2     1     2     0   501  6.117724938E+01 -5.201193563E+01  2.122761208E+02  2.864322063E+02  1.747408369E+02  0.00000E+00  9.000E+00
       6     2     1     2   507     0  3.706150690E+01  6.283754745E+00 -1.626707487E+00  1.757907232E+02  1.717168929E+02  0.00000E+00  9.000E+00
     -24     2     3     3     0     0 -2.875418619E+01  4.932628407E+00  8.636050166E+01  1.208816931E+02  7.939214969E+01  0.00000E+00  9.000E+00
      24     2     4     4     0     0  1.931338430E+01 -1.448163288E+01 -6.300935751E+01  1.044270665E+02  7.970011656E+01  0.00000E+00  9.000E+00
     -11     1     6     6     0     0 -1.654762977E+01  2.495514686E+01 -2.134614780E+01  3.677283551E+01  0.000000000E+00  0.00000E+00  9.000E+00
      12     1     6     6     0     0  3.586101407E+01 -3.943677974E+01 -4.166320972E+01  6.765423099E+01  1.784161275E-06  0.00000E+00  9.000E+00
      13     1     5     5     0     0 -1.598771953E+01 -1.881975290E+00  9.982530895E+01  1.011149905E+02  0.000000000E+00  0.00000E+00  9.000E+00
     -14     1     5     5     0     0 -1.276646665E+01  6.814603697E+00 -1.346480729E+01  1.976670255E+01  1.250277577E-06  0.00000E+00  9.000E+00
       5     1     4     4   513     0  2.156452199E+01  1.932818092E+01  6.042596229E+01  6.717489565E+01  4.750000000E+00  0.00000E+00  9.000E+00
      -5     1     3     3     0   512  9.010465969E+01 -5.736628605E+01  1.257587497E+02  1.650683679E+02  4.750000000E+00  0.00000E+00  9.000E+00
      21     1     1     2   502   511 -9.823875628E+01  4.572818088E+01 -2.335621420E+01  1.108486919E+02  3.888489349E-06  0.00000E+00  9.000E+00
      21     1     4     4   507   513 -3.816399394E+00  1.437206709E+00  9.566877335E-01  4.188761020E+00  8.296615426E-08  0.00000E+00  9.000E+00
      21     1     3     3   512   501 -1.732241124E-01  4.217220196E-01  1.568694485E-01  4.821452881E-01  1.666000469E-08  0.00000E+00  9.000E+00
#rwgt            1          17   4.3216119009122282                1     1486448           0       11011           0
<weights>
0.17459E+02
</weights>
</event>
<event>
     15  10001  1.35503E+01  5.52042E+01 -1.00000E+00  1.84482E-01
      21    -1     0     0   502   512  0.000000000E+00  0.000000000E+00  8.858647674E+01  8.858647674E+01  0.000000000E+00  0.00000E+00  9.000E+00
      21    -1     0     0   507   502  0.000000000E+00  0.000000000E+00 -8.240791942E+02  8.240791942E+02  0.000000000E+00  0.00000E+00  9.000E+00
      -6     2     1     2     0   501 -1.701042489E+02 -5.730872851E+01 -2.965771240E+02  3.875556967E+02  1.732676592E+02  0.00000E+00  9.000E+00
       6     2     1     2   507     0  1.377197763E+02  1.260139291E+01 -2.780854428E+02  3.550692812E+02  1.720963365E+02  0.00000E+00  9.000E+00
     -24     2     3     3     0     0 -1.818187488E+02 -5.431028636E+01 -1.910542070E+02  2.789773103E+02  7.293123492E+01  0.00000E+00  9.000E+00
      24     2     4     4     0     0  7.252744246E+01  2.719014394E+01 -2.640117054E+02  2.865784888E+02  8.015931514E+01  0.00000E+00  9.000E+00
     -11     1     6     6     0     0  5.807713028E+01  5.508409672E+01 -1.911312436E+02  2.072157404E+02  0.000000000E+00  0.00000E+00  9.000E+00
      12     1     6     6     0     0  1.445031218E+01 -2.789395278E+01 -7.288046183E+01  7.936274844E+01  1.651812370E-06  0.00000E+00  9.000E+00
      13     1     5     5     0     0 -1.848685019E+02 -5.683557644E+01 -1.940786307E+02  2.739948186E+02  0.000000000E+00  0.00000E+00  9.000E+00
     -14     1     5     5     0     0  3.049753094E+00  2.525290080E+00  3.024423743E+00  4.982491635E+00  2.598106231E-07  0.00000E+00  9.000E+00
       5     1     4     4   513     0  5.156715004E+01 -1.136415032E+01 -1.161247940E+01  5.427455254E+01  4.750000000E+00  0.00000E+00  9.000E+00
      -5     1     3     3     0   511  1.601998067E+01  3.746423315E+00 -6.176669250E+01  6.409650748E+01  4.750000000E+00  0.00000E+00  9.000E+00
      21     1     1     2   501   512  3.238447260E+01  4.470733560E+01 -1.608301507E+02  1.700406930E+02  0.000000000E+00  0.00000E+00  9.000E+00
      21     1     3     3   511   501 -4.305480833E+00 -6.744865465E+00 -4.375622453E+01  4.448187901E+01  9.536743164E-07  0.00000E+00  9.000E+00
      21     1     4     4   507   513  1.362518384E+01 -3.224600716E+00 -2.461257956E+00  1.421623984E+01  4.118762899E-07  0.00000E+00  9.000E+00
#rwgt            1          17   2.5346467537884414                1     1492444           0       11110           0
<weights>
0.12458E+02
</weights>
</event>
<event>
     13  10001  1.35503E+01  2.38988E+02 -1.00000E+00  1.08903E-01
      21    -1     0     0   502   511  0.000000000E+00  0.000000000E+00  8.299904249E+01  8.299904249E+01  0.000000000E+00  0.00000E+00  9.000E+00
      21    -1     0     0   507   502  0.000000000E+00  0.000000000E+00 -3.010580999E+03  3.010580999E+03  0.000000000E+00  0.00000E+00  9.000E+00
      -6     2     1     2     0   501  2.942292079E+01  1.018174509E+01 -2.354364831E+02  2.936857365E+02  1.727761502E+02  0.00000E+00  9.000E+00
       6     2     1     2   507     0  2.090560310E+02  5.401344168E+00 -2.431491488E+03  2.446262373E+03  1.682710405E+02  0.00000E+00  9.000E+00
     -24     2     3     3     0     0 -4.138282042E+01  3.859305451E+01 -1.477182263E+02  1.773340689E+02  8.015445046E+01  0.00000E+00  9.000E+00
      24     2     4     4     0     0  1.960573921E+02  3.836001066E+01 -2.298462530E+03  2.308514398E+03  7.999209473E+01  0.00000E+00  9.000E+00
     -11     1     6     6     0     0  2.719238127E+01 -1.569500379E+01 -1.866996336E+02  1.893211872E+02  0.000000000E+00  0.00000E+00  9.000E+00
      12     1     6     6     0     0  1.688650108E+02  5.405501445E+01 -2.111762896E+03  2.119193211E+03  3.051757812E-05  0.00000E+00  9.000E+00
      13     1     5     5     0     0 -2.013984413E+01  2.231887327E+01 -1.475416641E+02  1.505731983E+02  0.000000000E+00  0.00000E+00  9.000E+00
     -14     1     5     5     0     0 -2.124297629E+01  1.627418124E+01 -1.765621971E-01  2.676087052E+01  3.686096629E-06  0.00000E+00  9.000E+00
       5     1     4     4   507     0  1.299863894E+01 -3.295866649E+01 -1.330289579E+02  1.377479744E+02  4.750000000E+00  0.00000E+00  9.000E+00
      -5     1     3     3     0   501  7.080574121E+01 -2.841130942E+01 -8.771825682E+01  1.163516677E+02  4.750000000E+00  0.00000E+00  9.000E+00
      21     1     1     2   501   511 -2.384789518E+02 -1.558308926E+01 -2.606539855E+02  3.536319319E+02  5.394796609E-06  0.00000E+00  9.000E+00
#rwgt            2         113   1.3859562670613239                1     1506803           0           1           0
<weights>
0.13550E+02
</weights>
</event>
<event>
     14  10001  1.35503E+01  8.27237E+00 -1.00000E+00  2.78413E-01
      21    -1     0     0   512   501  0.000000000E+00  0.000000000E+00  9.671375817E+02  9.671375817E+02  0.000000000E+00  0.00000E+00  9.000E+00
      21    -1     0     0   507   502  0.000000000E+00  0.000000000E+00 -1.662540539E+02  1.662540539E+02  0.000000000E+00  0.00000E+00  9.000E+00
      -6     2     1     2     0   501  1.922489586E+02 -7.363966429E+01  7.582370448E+01  2.855192019E+02  1.827279898E+02  0.00000E+00  9.000E+00
       6     2     1     2   507     0 -1.994969129E+02  7.762704726E+01  1.740609793E+02  2.968114950E+02  1.094297141E+02  0.00000E+00  9.000E+00
     -24     2     3     3     0     0  8.459801044E+01 -6.409165311E+01 -2.815752413E+01  1.353798282E+02  7.918515233E+01  0.00000E+00  9.000E+00
      24     2     4     4     0     0 -2.005450312E+02  8.090599209E+01  1.756382561E+02  2.907369305E+02  8.315693998E+01  0.00000E+00  9.000E+00
     -11     1     6     6     0     0 -1.328576586E+02  6.013033166E+01  1.631748422E+02  2.188443359E+02  0.000000000E+00  0.00000E+00  9.000E+00
      12     1     6     6     0     0 -6.768737265E+01  2.077566043E+01  1.246341396E+01  7.189259468E+01  1.685873940E-07  0.00000E+00  9.000E+00
      13     1     5     5     0     0  1.721672551E+01 -5.845128252E+01 -2.960958687E+01  6.774729294E+01  0.000000000E+00  0.00000E+00  9.000E+00
     -14     1     5     5     0     0  6.738128493E+01 -5.640370584E+00  1.452062746E+00  6.763253526E+01  1.448558427E-06  0.00000E+00  9.000E+00
       5     1     4     4   507     0  1.048118317E+00 -3.278944833E+00 -1.577276839E+00  6.074564466E+00  4.750000000E+00  0.00000E+00  9.000E+00
      -5     1     3     3     0   513  7.512431345E+01 -4.986746819E+00  7.111841502E+01  1.036770060E+02  4.750000000E+00  0.00000E+00  9.000E+00
      21     1     1     2   512   502  7.247954310E+00 -3.987382967E+00  5.509988440E+02  5.510609387E+02  0.000000000E+00  0.00000E+00  9.000E+00
      21     1     3     3   513   501  3.252663470E+01 -4.561264362E+00  3.286281359E+01  4.646236772E+01  4.768371582E-07  0.00000E+00  9.000E+00
#rwgt            1          17   11.000395691232494                1     1508058           0         111           0
<weights>
0.14031E+02
</weights>
</event>
<event>
     14  10001  1.35503E+01  1.90272E+01 -1.00000E+00  1.85982E-01
      21    -1     0     0   511   501  0.000000000E+00  0.000000000E+00  1.104962774E+03  1.104962774E+03  0.000000000E+00  0.00000E+00  9.000E+00
      21    -1     0     0   501   502  0.000000000E+00  0.000000000E+00 -6.371175923E+01  6.371175923E+01  0.000000000E+00  0.00000E+00  9.000E+00
      -6     2     1     2     0   502 -8.695130739E+01  8.143948844E+01  1.700031202E+02  2.702483624E+02  1.730323564E+02  0.00000E+00  9.000E+00
       6     2     1     2   507     0  7.264284162E+01 -6.889741270E+01  7.657614168E+02  7.912373989E+02  1.721692133E+02  0.00000E+00  9.000E+00
     -24     2     3     3     0     0 -1.302092311E+02  8.104045723E+01  1.399422755E+02  2.148244590E+02  5.516981179E+01  0.00000E+00  9.000E+00
      24     2     4     4     0     0  1.016742246E+01 -3.006203949E+01  6.351681673E+02  6.412756586E+02  8.239397403E+01  0.00000E+00  9.000E+00
     -11     1     6     6     0     0 -5.111291776E+00  2.788639644E+01  1.985987029E+02  2.006121163E+02  0.000000000E+00  0.00000E+00  9.000E+00
      12     1     6     6     0     0  1.527871423E+01 -5.794843593E+01  4.365694643E+02  4.406635423E+02  7.629394531E-06  0.00000E+00  9.000E+00
      13     1     5     5     0     0 -8.313291459E+01  3.148222609E+01  1.065126829E+02  1.387341474E+02  0.000000000E+00  0.00000E+00  9.000E+00
     -14     1     5     5     0     0 -4.707631652E+01  4.955823114E+01  3.342959264E+01  7.609031157E+01  9.536743164E-07  0.00000E+00  9.000E+00
       5     1     4     4   507     0  6.247541916E+01 -3.883537321E+01  1.305932496E+02  1.499617403E+02  4.750000000E+00  0.00000E+00  9.000E+00
      -5     1     3     3     0   512  2.738598393E+01 -5.336889827E+00  2.511079056E+01  3.783634247E+01  4.750000000E+00  0.00000E+00  9.000E+00
      21     1     1     2   511   507  1.430846577E+01 -1.254207574E+01  1.054864779E+02  1.071887721E+02  2.336015456E-06  0.00000E+00  9.000E+00
      21     1     3     3   512   502  1.587193978E+01  5.735921037E+00  4.950054142E+00  1.758756091E+01  8.387116956E-07  0.00000E+00  9.000E+00
#rwgt            1          17   25.784475701385855                1     1518576           0         111           0
<weights>
0.17405E+02
</weights>
</event>
<event>
     15  10001  1.35503E+01  2.06831E+01 -1.00000E+00  1.44522E-01
      -2    -1     0     0     0   511  0.000000000E+00  0.000000000E+00  1.190517965E+02  1.190517965E+02  0.000000000E+00  0.00000E+00  9.000E+00
       2    -1     0     0   507     0  0.000000000E+00  0.000000000E+00 -2.433248457E+03  2.433248457E+03  0.000000000E+00  0.00000E+00  9.000E+00
      -6     2     1     2     0   501  3.908646422E+01 -3.090201478E+02 -2.653634081E+02  4.443962315E+02  1.733466723E+02  0.00000E+00  9.000E+00
       6     2     1     2   507     0 -5.119135959E+01  3.257910617E+02 -1.148649048E+03  1.207482235E+03  1.727956649E+02  0.00000E+00  9.000E+00
     -24     2     3     3     0     0  1.540511394E+01 -2.933255880E+02 -2.298378118E+02  3.817319876E+02  8.134293174E+01  0.00000E+00  9.000E+00
      24     2     4     4     0     0 -2.928418164E+01  4.647813949E+01 -2.805136893E+02  2.951747626E+02  7.363714979E+01  0.00000E+00  9.000E+00
     -11     1     6     6     0     0 -1.100623671E+01  4.181810251E+01 -6.055993923E+01  7.441368949E+01  0.000000000E+00  0.00000E+00  9.000E+00
      12     1     6     6     0     0 -1.827794493E+01  4.660036973E+00 -2.199537501E+02  2.207610731E+02  0.000000000E+00  0.00000E+00  9.000E+00
      13     1     5     5     0     0  1.415993965E+01 -1.989992683E+02 -2.007309789E+02  2.830090786E+02  0.000000000E+00  0.00000E+00  9.000E+00
     -14     1     5     5     0     0  1.245174289E+00 -9.432631970E+01 -2.910683286E+01  9.872290903E+01  4.046097457E-06  0.00000E+00  9.000E+00
       5     1     4     4   514     0 -1.847407336E+01  2.339762214E+02 -7.134939952E+02  7.511207674E+02  4.750000000E+00  0.00000E+00  9.000E+00
      -5     1     3     3     0   512  2.983701839E+01 -1.863335201E+01 -1.093151988E+01  3.714175683E+01  4.750000000E+00  0.00000E+00  9.000E+00
      21     1     3     3   512   501 -6.155668113E+00  2.938792195E+00 -2.459407645E+01  2.552248706E+01  0.000000000E+00  0.00000E+00  9.000E+00
      21     1     1     2   501   511  1.210489538E+01 -1.677091382E+01 -9.001842050E+02  9.004217873E+02  1.078959322E-05  0.00000E+00  9.000E+00
      21     1     4     4   507   514 -3.433104593E+00  4.533670076E+01 -1.546413633E+02  1.611867050E+02  0.000000000E+00  0.00000E+00  9.000E+00
#rwgt            1           6  0.93479288233032654                1     1529278           0      110110           0
<weights>
0.13168E+02
</weights>
</event>
<event>
     15  10001 -1.35503E+01  2.06629E+02 -1.00000E+00  2.00089E-01
      21    -1     0     0   502   501  0.000000000E+00  0.000000000E+00  3.721285334E+02  3.721285334E+02  0.000000000E+00  0.00000E+00  9.000E+00
       3    -1     0     0   507     0  0.000000000E+00  0.000000000E+00 -3.971759945E+02  3.971759945E+02  0.000000000E+00  0.00000E+00  9.000E+00
      -6     2     1     2     0   501  1.649393537E+02  1.716404974E+02  4.331430872E+01  2.971047999E+02  1.724229741E+02  0.00000E+00  9.000E+00
       6     2     1     2   507     0 -2.915298613E+01 -1.589167464E+01  1.035670054E+02  2.033965712E+02  1.718766960E+02  0.00000E+00  9.000E+00
     -24     2     3     3     0     0  1.904331248E+02  1.457908267E+02  5.334485646E+01  2.572269277E+02  7.615955907E+01  0.00000E+00  9.000E+00
      24     2     4     4     0     0 -3.064951109E+01 -5.832110956E+01 -1.184935297E+01  7.962837065E+01  4.312222045E+01  0.00000E+00  9.000E+00
     -11     1     6     6     0     0 -4.617991954E-01  2.815264922E+00 -1.107937463E+01  1.144078307E+01  0.000000000E+00  0.00000E+00  9.000E+00
      12     1     6     6     0     0 -3.018771189E+01 -6.113637448E+01 -7.699783452E-01  6.818758759E+01  1.559006172E-06  0.00000E+00  9.000E+00
      13     1     5     5     0     0  6.175294769E+01  9.313773946E+01  1.329646652E+01  1.125382650E+02  0.000000000E+00  0.00000E+00  9.000E+00
     -14     1     5     5     0     0  1.286801771E+02  5.265308725E+01  4.004838993E+01  1.446886627E+02  3.631483605E-06  0.00000E+00  9.000E+00
       5     1     4     4   511     0  1.456768950E+00  3.905330438E+01  1.128719190E+02  1.195404340E+02  4.750000000E+00  0.00000E+00  9.000E+00
      -5     1     3     3     0   512 -1.827730859E+01  1.641881964E+01 -1.151740867E+00  2.505048212E+01  4.750000000E+00  0.00000E+00  9.000E+00
       3     1     1     2   502     0 -1.357863676E+02 -1.557488228E+02 -1.719287753E+02  2.688031569E+02  0.000000000E+00  0.00000E+00  9.000E+00
      21     1     3     3   512   501 -7.216462548E+00  9.430851072E+00 -8.878806876E+00  1.482739003E+01  7.152557373E-07  0.00000E+00  9.000E+00
      21     1     4     4   507   511  3.975600593E-02  3.376130542E+00  2.544439433E+00  4.227766550E+00  8.429369702E-08  0.00000E+00  9.000E+00
#rwgt            1          17  -7.8001199655813602                1     1533526           0       11110           0
<weights>
-.41204E+02
</weights>
</event>
<event>
     13  10001  1.35503E+01  2.54270E+01 -1.00000E+00  1.58202E-01
      21    -1     0     0   502   511  0.000000000E+00  0.000000000E+00  5.576267057E+02  5.576267057E+02  0.000000000E+00  0.00000E+00  9.000E+00
      21    -1     0     0   507   502  0.000000000E+00  0.000000000E+00 -9.376716065E+01  9.376716065E+01  0.000000000E+00  0.00000E+00  9.000E+00
      -6     2     1     2     0   501  4.509814565E+00  3.715140967E+01  3.337453824E+02  3.776582315E+02  1.727402497E+02  0.00000E+00  9.000E+00
       6     2     1     2   507     0 -1.600245107E+01 -1.446988816E+01  5.630212857E+01  1.956667647E+02  1.861453653E+02  0.00000E+00  9.000E+00
     -24     2     3     3     0     0  6.314114464E+00  8.303131003E+01  1.044189558E+02  1.437321894E+02  5.311833429E+01  0.00000E+00  9.000E+00
      24     2     4     4     0     0 -4.772284864E+01 -4.823296789E+01 -1.904738962E+01  1.070877516E+02  8.062936199E+01  0.00000E+00  9.000E+00
     -11     1     6     6     0     0 -5.873972355E+01 -5.903618183E+00 -2.257837901E+01  6.320594140E+01  0.000000000E+00  0.00000E+00  9.000E+00
      12     1     6     6     0     0  1.101687490E+01 -4.232934971E+01  3.530989389E+00  4.388181019E+01  9.920189963E-07  0.00000E+00  9.000E+00
      13     1     5     5     0     0 -5.924661580E+00  7.078045444E+01  1.045739183E+02  1.264147093E+02  0.000000000E+00  0.00000E+00  9.000E+00
     -14     1     5     5     0     0  1.223877604E+01  1.225085559E+01 -1.549624636E-01  1.731748005E+01  3.237146517E-07  0.00000E+00  9.000E+00
       5     1     4     4   507     0  3.172039757E+01  3.376307973E+01  7.534951819E+01  8.857901312E+01  4.750000000E+00  0.00000E+00  9.000E+00
      -5     1     3     3     0   501 -1.804299899E+00 -4.587990036E+01  2.293264266E+02  2.339260421E+02  4.750000000E+00  0.00000E+00  9.000E+00
      21     1     1     2   501   511  1.149263651E+01 -2.268152151E+01  7.381203404E+01  7.806887011E+01  1.348699152E-06  0.00000E+00  9.000E+00
#rwgt            2         113   9.3039215563796578                1     1550544           0           1           0
<weights>
0.13550E+02
</weights>
</event>
<event>
     13  10001  1.35503E+01  2.10670E+02 -1.00000E+00  7.51535E-01
      21    -1     0     0   502   501  0.000000000E+00  0.000000000E+00  6.296654243E+01  6.296654243E+01  0.000000000E+00  0.00000E+00  9.000E+00
       2    -1     0     0   507     0  0.000000000E+00  0.000000000E+00 -3.214919928E+03  3.214919928E+03  0.000000000E+00  0.00000E+00  9.000E+00
      -6     2     1     2     0   501  2.437341742E+02  7.742512357E+01 -5.158560868E+02  6.007314220E+02  1.713760241E+02  0.00000E+00  9.000E+00
       6     2     1     2   507     0 -3.464548154E+01 -5.166478660E+01 -5.256227668E+02  5.561919591E+02  1.708819557E+02  0.00000E+00  9.000E+00
     -24     2     3     3     0     0  1.562881995E+02  6.703988453E+01 -4.583149165E+02  4.954308974E+02  8.049139110E+01  0.00000E+00  9.000E+00
      24     2     4     4     0     0  4.025502917E+01 -5.545739950E+01 -2.743764672E+02  2.939483014E+02  8.016961781E+01  0.00000E+00  9.000E+00
     -11     1     6     6     0     0  2.445168693E+01 -6.647491580E+01 -2.611383884E+02  2.705735710E+02  0.000000000E+00  0.00000E+00  9.000E+00
      12     1     6     6     0     0  1.580334225E+01  1.101751630E+01 -1.323807878E+01  2.337473040E+01  3.371747881E-07  0.00000E+00  9.000E+00
      13     1     5     5     0     0  9.559935465E+01  1.474501316E+01 -1.639382849E+02  1.903481371E+02  0.000000000E+00  0.00000E+00  9.000E+00
     -14     1     5     5     0     0  6.068884483E+01  5.229487137E+01 -2.943766316E+02  3.050827604E+02  3.814697266E-06  0.00000E+00  9.000E+00
       5     1     4     4   507     0 -7.490051072E+01  3.792612899E+00 -2.512462996E+02  2.622436577E+02  4.750000000E+00  0.00000E+00  9.000E+00
      -5     1     3     3     0   501  8.744597475E+01  1.038523905E+01 -5.754117032E+01  1.053005246E+02  4.750000000E+00  0.00000E+00  9.000E+00
       2     1     1     2   502     0 -2.090886927E+02 -2.576033697E+01 -2.110474532E+03  2.120963089E+03  0.000000000E+00  0.00000E+00  9.000E+00
#rwgt            1          17   59.731062275340413                1     1551223           0           1           0
<weights>
0.12488E+02
</weights>
</event>
<event>
     14  10001  1.35503E+01  9.24032E+01 -1.00000E+00  7.15653E-01
      -1    -1     0     0     0   501  0.000000000E+00  0.000000000E+00  2.647148209E+02  2.647148209E+02  0.000000000E+00  0.00000E+00  9.000E+00
      21    -1     0     0   501   511  0.000000000E+00  0.000000000E+00 -5.917319802E+02  5.917319802E+02  0.000000000E+00  0.00000E+00  9.000E+00
      -6     2     1     2     0   507  1.723444530E+01  7.863538016E+01  1.090674980E+02  2.207155505E+02  1.741811872E+02  0.00000E+00  9.000E+00
       6     2     1     2   507     0 -4.246115820E+01  1.025757121E+01  1.147541534E+01  1.787319480E+02  1.729313632E+02  0.00000E+00  9.000E+00
     -24     2     3     3     0     0  2.830187579E+01 -1.825023200E+01  1.946164083E+01  8.819731773E+01  7.915771756E+01  0.00000E+00  9.000E+00
      24     2     4     4     0     0  1.522453093E+01 -4.462448193E+01 -1.192383901E+01  9.475335120E+01  8.131967103E+01  0.00000E+00  9.000E+00
     -11     1     6     6     0     0 -1.921282374E+01 -3.635724639E+01 -3.371028366E+01  5.317297420E+01  0.000000000E+00  0.00000E+00  9.000E+00
      12     1     6     6     0     0  3.443735468E+01 -8.267235542E+00  2.178644465E+01  4.158037700E+01  1.430511475E-06  0.00000E+00  9.000E+00
      13     1     5     5     0     0 -1.779110598E+01 -2.475728622E+01  2.738199200E+01  4.097828888E+01  0.000000000E+00  0.00000E+00  9.000E+00
     -14     1     5     5     0     0  4.609298177E+01  6.507054225E+00 -7.920351176E+00  4.721902885E+01  1.241723696E-06  0.00000E+00  9.000E+00
       5     1     4     4   513     0 -5.353547716E+01  4.563378452E+01  2.090166038E+01  7.353863958E+01  4.750000000E+00  0.00000E+00  9.000E+00
      -5     1     3     3     0   507 -1.106743048E+01  9.688561216E+01  8.960585721E+01  1.325182327E+02  4.750000000E+00  0.00000E+00  9.000E+00
      -1     1     1     2     0   511  2.522671290E+01 -8.889295136E+01 -4.475600728E+02  4.569993026E+02  0.000000000E+00  0.00000E+00  9.000E+00
      21     1     4     4   507   513 -4.150211982E+00  9.248268616E+00  2.497593961E+00  1.043995726E+01  2.980232239E-08  0.00000E+00  9.000E+00
#rwgt            1           2  0.55241034426696378                1     1565695           0         110           0
<weights>
0.20628E+02
</weights>
</event>
<event>
     14  10001  1.35503E+01  3.42582E+01 -1.00000E+00  7.51858E-01
      21    -1     0     0   512   501  0.000000000E+00  0.000000000E+00  8.593597233E+02  8.593597233E+02  0.000000000E+00  0.00000E+00  9.000E+00
      21    -1     0     0   507   502  0.000000000E+00  0.000000000E+00 -2.663960729E+02  2.663960729E+02  0.000000000E+00  0.00000E+00  9.000E+00
      -6     2     1     2     0   501  4.156354334E+01 -1.705462127E+02  3.996830321E+02  4.696675971E+02  1.732846987E+02  0.00000E+00  9.000E+00
       6     2     1     2   507     0 -7.116688471E+01  1.877876654E+02  3.637984431E+02  4.821630599E+02  2.445464708E+02  0.00000E+00  9.000E+00
     -24     2     3     3     0     0 -4.755219205E+00 -1.432729360E+01  1.173196092E+02  1.436285756E+02  8.147020055E+01  0.00000E+00  9.000E+00
      24     2     4     4     0     0 -2.764241926E+01  1.524390820E+02  3.828382827E+02  4.223941765E+02  8.859973238E+01  0.00000E+00  9.000E+00
     -11     1     6     6     0     0  2.568282763E+01  5.837794508E+01  2.005894438E+02  2.104844818E+02  0.000000000E+00  0.00000E+00  9.000E+00
      12     1     6     6     0     0 -5.332524689E+01  9.406113696E+01  1.822488389E+02  2.119096948E+02  2.697398305E-06  0.00000E+00  9.000E+00
      13     1     5     5     0     0  2.070458393E+01 -1.708057051E+01  1.148007799E+02  1.178967546E+02  0.000000000E+00  0.00000E+00  9.000E+00
     -14     1     5     5     0     0 -2.545980314E+01  2.753276910E+00  2.518829286E+00  2.573182097E+01  3.650024150E-07  0.00000E+00  9.000E+00
       5     1     4     4   511     0 -4.078654987E+01  3.222419735E+01 -1.591043134E+01  5.456780984E+01  4.750000000E+00  0.00000E+00  9.000E+00
      -5     1     3     3     0   501  4.631876255E+01 -1.562189191E+02  2.823634229E+02  3.260390214E+02  4.750000000E+00  0.00000E+00  9.000E+00
      21     1     1     2   512   502  2.960334137E+01 -1.724145279E+01 -1.705178248E+02  1.739251393E+02  5.394796609E-06  0.00000E+00  9.000E+00
      21     1     4     4   507   511 -2.737915589E+00  3.124386054E+00 -3.129408292E+00  5.201073567E+00  2.493441184E-07  0.00000E+00  9.000E+00
#rwgt            1          17   5.7677972105468314                1     1566480           0         110           0
<weights>
0.14866E+01
</weights>
</event>
<event>
     14  10001 -1.35503E+01  2.03309E+01 -1.00000E+00  7.50807E-01
      21    -1     0     0   511   501  0.000000000E+00  0.000000000E+00  7.100865094E+02  7.100865094E+02  0.000000000E+00  0.00000E+00  9.000E+00
      21    -1     0     0   501   502  0.000000000E+00  0.000000000E+00 -1.041322904E+02  1.041322904E+02  0.000000000E+00  0.00000E+00  9.000E+00
      -6     2     1     2     0   502  1.281605192E+02 -2.649879146E+01  9.338000566E+01  2.360466844E+02  1.728320199E+02  0.00000E+00  9.000E+00
       6     2     1     2   507     0 -1.316163663E+02  4.653383222E+01  5.122554696E+02  5.578387110E+02  1.711434952E+02  0.00000E+00  9.000E+00
     -24     2     3     3     0     0  1.442276589E+02 -5.028667385E+01  1.087115893E+02  2.031584451E+02  7.826095445E+01  0.00000E+00  9.000E+00
      24     2     4     4     0     0 -6.522822863E+01  4.007615700E+00  4.343897864E+02  4.464719998E+02  7.982466594E+01  0.00000E+00  9.000E+00
     -11     1     6     6     0     0 -5.793885381E+01  3.738915920E+01  2.845456621E+02  2.927816487E+02  0.000000000E+00  0.00000E+00  9.000E+00
      12     1     6     6     0     0 -7.289374822E+00 -3.338154350E+01  1.498441243E+02  1.536903511E+02  3.303624740E-06  0.00000E+00  9.000E+00
      13     1     5     5     0     0  1.297802175E+02 -3.084642190E+01  5.509630898E+01  1.443260540E+02  0.000000000E+00  0.00000E+00  9.000E+00
     -14     1     5     5     0     0  1.444744148E+01 -1.944025194E+01  5.361528033E+01  5.883239113E+01  1.168007728E-06  0.00000E+00  9.000E+00
       5     1     4     4   512     0 -6.541257535E+01  4.071227321E+01  7.373334488E+01  1.067495333E+02  4.750000000E+00  0.00000E+00  9.000E+00
      -5     1     3     3     0   502 -1.606713971E+01  2.378788238E+01 -1.533158366E+01  3.288823930E+01  4.750000000E+00  0.00000E+00  9.000E+00
      21     1     1     2   511   507  3.455847039E+00 -2.003504076E+01  3.187437753E-01  2.033340440E+01  9.649868195E-08  0.00000E+00  9.000E+00
      21     1     4     4   507   512 -9.755622858E-01  1.813943310E+00  4.132338318E+00  4.617177935E+00  5.960464478E-08  0.00000E+00  9.000E+00
#rwgt            1          17  -35.916987754448037                1     1577923           0         110           0
<weights>
-.13493E+02
</weights>
</event>
<event>
     13  10001  1.35503E+01  7.00532E+01 -1.00000E+00  1.31204E-01
       2    -1     0     0   512     0  0.000000000E+00  0.000000000E+00  1.152792466E+03  1.152792466E+03  0.000000000E+00  0.00000E+00  9.000E+00
      -2    -1     0     0     0   502  0.000000000E+00  0.000000000E+00 -5.671538141E+01  5.671538141E+01  0.000000000E+00  0.00000E+00  9.000E+00
      -6     2     1     2     0   502 -1.742037217E+01  4.993490536E+01  2.116974297E+02  2.784294170E+02  1.729455820E+02  0.00000E+00  9.000E+00
       6     2     1     2   507     0  3.313143107E+01  1.833374081E+01  3.534301658E+02  3.955274942E+02  1.734799664E+02  0.00000E+00  9.000E+00
     -24     2     3     3     0     0  6.398366314E+00  8.467804625E+01  8.836663703E+01  1.480167448E+02  8.299990112E+01  0.00000E+00  9.000E+00
      24     2     4     4     0     0  4.311796618E+01 -3.683092370E+01  1.672602844E+02  2.010418692E+02  9.605287328E+01  0.00000E+00  9.000E+00
     -11     1     6     6     0     0 -1.632247284E+01 -2.655805745E+00  1.113496230E+02  1.125709331E+02  0.000000000E+00  0.00000E+00  9.000E+00
      12     1     6     6     0     0  5.944043901E+01 -3.417511795E+01  5.591066141E+01  8.847093611E+01  1.507891493E-06  0.00000E+00  9.000E+00
      13     1     5     5     0     0  1.224062790E+01  1.007274149E+02  7.852594689E+01  1.283049859E+02  0.000000000E+00  0.00000E+00  9.000E+00
     -14     1     5     5     0     0 -5.842261588E+00 -1.604936864E+01  9.840690135E+00  1.971175884E+01  7.152557373E-07  0.00000E+00  9.000E+00
       5     1     4     4   507     0 -9.986535107E+00  5.516466451E+01  1.861698814E+02  1.944856250E+02  4.750000000E+00  0.00000E+00  9.000E+00
      -5     1     3     3     0   502 -2.381873849E+01 -3.474314089E+01  1.233307927E+02  1.304126722E+02  4.750000000E+00  0.00000E+00  9.000E+00
      21     1     1     2   512   507 -1.571105890E+01 -6.826864618E+01  5.309494892E+02  5.355509364E+02  7.629394531E-06  0.00000E+00  9.000E+00
#rwgt            2          34  0.20501592590845744                1     1601839           0           1           0
<weights>
0.13550E+02
</weights>
</event>
<event>
     13  10001  1.35503E+01  1.25340E+02 -1.00000E+00  1.19571E-01
      21    -1     0     0   502   501  0.000000000E+00  0.000000000E+00  4.815580979E+02  4.815580979E+02  0.000000000E+00  0.00000E+00  9.000E+00
      21    -1     0     0   507   511  0.000000000E+00  0.000000000E+00 -1.686148814E+02  1.686148814E+02  0.000000000E+00  0.00000E+00  9.000E+00
      -6     2     1     2     0   501 -8.711971558E+01 -1.484666914E+02  1.211658222E+02  2.719111800E+02  1.721113885E+02  0.00000E+00  9.000E+00
       6     2     1     2   507     0  3.953823194E+01  3.250953062E+01  1.766806364E+02  2.520161148E+02  1.722670412E+02  0.00000E+00  9.000E+00
     -24     2     3     3     0     0 -1.142409991E+02 -8.258383124E+01  1.165947825E+02  2.003599942E+02  8.172324588E+01  0.00000E+00  9.000E+00
      24     2     4     4     0     0 -4.169441440E+01  6.516757077E+00  6.739940529E+01  1.133102495E+02  8.071951744E+01  0.00000E+00  9.000E+00
     -11     1     6     6     0     0 -2.204798025E+01  3.301791871E+00 -1.608132964E+01  2.748862356E+01  0.000000000E+00  0.00000E+00  9.000E+00
      12     1     6     6     0     0 -1.964643416E+01  3.214965206E+00  8.348073493E+01  8.582162595E+01  1.651812370E-06  0.00000E+00  9.000E+00
      13     1     5     5     0     0 -9.928711338E+01 -8.729713842E+01  1.255340528E+02  1.823116005E+02  0.000000000E+00  0.00000E+00  9.000E+00
     -14     1     5     5     0     0 -1.495388576E+01  4.713307179E+00 -8.939270290E+00  1.804839376E+01  3.371747881E-07  0.00000E+00  9.000E+00
       5     1     4     4   507     0  8.123264634E+01  2.599277354E+01  1.092812311E+02  1.387058653E+02  4.750000000E+00  0.00000E+00  9.000E+00
      -5     1     3     3     0   501  2.712128357E+01 -6.588286019E+01  4.571039690E+00  7.155118582E+01  4.750000000E+00  0.00000E+00  9.000E+00
      21     1     1     2   502   511  4.758148364E+01  1.159571608E+02  1.509675805E+01  1.262456844E+02  1.338120956E-06  0.00000E+00  9.000E+00
#rwgt            2         113   1.7124100970239835                1     1605925           0           1           0
<weights>
0.13550E+02
</weights>
</event>
<event>
     13  10001  1.35503E+01  1.61880E+02 -1.00000E+00  1.15097E-01
       2    -1     0     0   507     0  0.000000000E+00  0.000000000E+00  1.384643352E+03  1.384643352E+03  0.000000000E+00  0.00000E+00  9.000E+00
      21    -1     0     0   501   502  0.000000000E+00  0.000000000E+00 -4.455129147E+01  4.455129147E+01  0.000000000E+00  0.00000E+00  9.000E+00
      -6     2     1     2     0   502 -1.667866551E+02  9.147523303E+00  6.132906510E+02  6.585541794E+02  1.722402946E+02  0.00000E+00  9.000E+00
       6     2     1     2   507     0  5.683678003E+00  6.690221443E+00  1.949346257E+02  2.146842795E+02  8.951406776E+01  0.00000E+00  9.000E+00
     -24     2     3     3     0     0 -3.292464093E+01 -2.861401199E+01  3.389626503E+02  3.509450331E+02  7.977433376E+01  0.00000E+00  9.000E+00
      24     2     4     4     0     0 -1.176379901E-02  1.118452224E+01  1.778429708E+02  1.955185820E+02  8.046303467E+01  0.00000E+00  9.000E+00
     -11     1     6     6     0     0  1.635085543E+01 -1.354576947E+00  1.737232684E+02  1.744963018E+02  0.000000000E+00  0.00000E+00  9.000E+00
      12     1     6     6     0     0 -1.636261923E+01  1.253909919E+01  4.119702429E+00  2.102228020E+01  9.348623241E-07  0.00000E+00  9.000E+00
      13     1     5     5     0     0  1.562081261E+01  1.680657213E+01  6.183508819E+01  6.595489962E+01  0.000000000E+00  0.00000E+00  9.000E+00
     -14     1     5     5     0     0 -4.854545354E+01 -4.542058411E+01  2.771275621E+02  2.849901335E+02  0.000000000E+00  0.00000E+00  9.000E+00
       5     1     4     4   507     0  5.695441802E+00 -4.494300796E+00  1.709165486E+01  1.916569756E+01  4.750000000E+00  0.00000E+00  9.000E+00
      -5     1     3     3     0   502 -1.338620142E+02  3.776153529E+01  2.743280007E+02  3.076091462E+02  4.750000000E+00  0.00000E+00  9.000E+00
       2     1     1     2   501     0  1.611029771E+02 -1.583774475E+01  5.318667837E+02  5.559561845E+02  0.000000000E+00  0.00000E+00  9.000E+00
#rwgt            2          37  0.41847803521731386                1     1611116           0           1           0
<weights>
0.13550E+02
</weights>
</event>
<event>
     13  10001  1.35503E+01  1.42480E+01 -1.00000E+00  1.79514E-01
      21    -1     0     0   502   511  0.000000000E+00  0.000000000E+00  1.058281394E+02  1.058281394E+02  0.000000000E+00  0.00000E+00  9.000E+00
      21    -1     0     0   507   502  0.000000000E+00  0.000000000E+00 -3.825494154E+02  3.825494154E+02  0.000000000E+00  0.00000E+00  9.000E+00
      -6     2     1     2     0   501 -1.201957172E+01  1.260819652E+01 -1.650459601E+02  2.396043679E+02  1.728196963E+02  0.00000E+00  9.000E+00
       6     2     1     2   507     0  5.578145231E+00 -2.531697704E+01 -1.356563406E+02  2.208788395E+02  1.723738784E+02  0.00000E+00  9.000E+00
     -24     2     3     3     0     0 -1.558138981E+01 -4.161136261E+00 -1.908142356E+02  2.082920125E+02  8.194751493E+01  0.00000E+00  9.000E+00
      24     2     4     4     0     0 -5.102364984E+01 -1.352998724E+01 -1.351796390E+02  1.628660299E+02  7.392790736E+01  0.00000E+00  9.000E+00
     -11     1     6     6     0     0  1.488457371E+00 -1.915507636E+01 -9.387112293E+01  9.581711838E+01  0.000000000E+00  0.00000E+00  9.000E+00
      12     1     6     6     0     0 -5.251210721E+01  5.625089117E+00 -4.130851608E+01  6.704891149E+01  1.168007728E-06  0.00000E+00  9.000E+00
      13     1     5     5     0     0  1.368391261E+01  2.879595142E+01 -1.255795322E+02  1.295634022E+02  0.000000000E+00  0.00000E+00  9.000E+00
     -14     1     5     5     0     0 -2.926530242E+01 -3.295708768E+01 -6.523470347E+01  7.872861037E+01  9.536743164E-07  0.00000E+00  9.000E+00
       5     1     4     4   507     0  5.660179507E+01 -1.178698980E+01 -4.767015693E-01  5.801280961E+01  4.750000000E+00  0.00000E+00  9.000E+00
      -5     1     3     3     0   501  3.561818084E+00  1.676933278E+01  2.576827557E+01  3.131235532E+01  4.750000000E+00  0.00000E+00  9.000E+00
      21     1     1     2   501   511  6.441426491E+00  1.270878052E+01  2.398102461E+01  2.789434743E+01  4.768371582E-07  0.00000E+00  9.000E+00
#rwgt            2         113   64.743989830187928                1     1616642           0           1           0
<weights>
0.13550E+02
</weights>
</event>
<event>
     15  10001  1.35503E+01  8.43213E+01 -1.00000E+00  1.55898E-01
      -1    -1     0     0     0   501  0.000000000E+00  0.000000000E+00  1.065087232E+03  1.065087232E+03  0.000000000E+00  0.00000E+00  9.000E+00
      21    -1     0     0   507   502  0.000000000E+00  0.000000000E+00 -1.789151541E+02  1.789151541E+02  0.000000000E+00  0.00000E+00  9.000E+00
      -6     2     1     2     0   501 -5.919989307E+01 -1.058581941E+02  6.341007440E+01  2.193613800E+02  1.714292651E+02  0.00000E+00  9.000E+00
       6     2     1     2   507     0  8.000791636E+01  1.875718062E+02  8.349920071E+01  2.805848389E+02  1.736988376E+02  0.00000E+00  9.000E+00
     -24     2     3     3     0     0 -5.623278958E+01 -8.368110838E+01 -1.185254011E+01  1.363626365E+02  9.104741289E+01  0.00000E+00  9.000E+00
      24     2     4     4     0     0 -1.046887620E+01  6.376931087E+01 -4.872231485E+00  1.031131834E+02  8.020266561E+01  0.00000E+00  9.000E+00
     -11     1     6     6     0     0  1.697451228E+01 -4.850268090E+00 -2.103611868E+01  2.746229154E+01  0.000000000E+00  0.00000E+00  9.000E+00
      12     1     6     6     0     0 -2.744338848E+01  6.861957896E+01  1.616388720E+01  7.565089185E+01  2.407909617E-06  0.00000E+00  9.000E+00
      13     1     5     5     0     0 -3.145511181E+01  1.162723547E+01  1.095540796E+01  3.527942215E+01  0.000000000E+00  0.00000E+00  9.000E+00
     -14     1     5     5     0     0 -2.477767777E+01 -9.530834385E+01 -2.280794807E+01  1.010832143E+02  8.259061849E-07  0.00000E+00  9.000E+00
       5     1     4     4   512     0  9.041781464E+01  1.222491109E+02  8.636474837E+01  1.749332975E+02  4.750000000E+00  0.00000E+00  9.000E+00
      -5     1     3     3     0   511  5.225207211E+00  2.485634257E+00  2.885291889E+01  2.980829745E+01  4.750000000E+00  0.00000E+00  9.000E+00
      -1     1     1     2     0   502 -2.080802329E+01 -8.171361204E+01  7.392628032E+02  7.440561675E+02  0.000000000E+00  0.00000E+00  9.000E+00
      21     1     3     3   511   501 -8.192310699E+00 -2.466272000E+01  4.640969561E+01  5.319044613E+01  6.743495762E-07  0.00000E+00  9.000E+00
      21     1     4     4   507   512  5.897792299E-02  1.553384443E+00  2.006683823E+00  2.538358050E+00  0.000000000E+00  0.00000E+00  9.000E+00
#rwgt            1          17   8.9894841867090989                1     1617129           0       11110           0
<weights>
0.14223E+02
</weights>
</event>
<event>
     14  10001  1.35503E+01  9.38192E+00 -1.00000E+00  2.52962E-01
      21    -1     0     0   511   501  0.000000000E+00  0.000000000E+00  4.105006685E+02  4.105006685E+02  0.000000000E+00  0.00000E+00  9.000E+00
      21    -1     0     0   501   502  0.000000000E+00  0.000000000E+00 -1.365396474E+02  1.365396474E+02  0.000000000E+00  0.00000E+00  9.000E+00
      -6     2     1     2     0   502 -7.797765302E+01  5.777510174E+01  3.557611225E+01  2.000298841E+02  1.712536657E+02  0.00000E+00  9.000E+00
       6     2     1     2   507     0  8.508687320E+01 -6.389713863E+01  2.564045357E+02  3.266947408E+02  1.722310873E+02  0.00000E+00  9.000E+00
     -24     2     3     3     0     0 -8.705563592E+01  8.534032565E+01  6.229473466E+01  1.588969758E+02  8.065953150E+01  0.00000E+00  9.000E+00
      24     2     4     4     0     0  8.601887123E+01 -6.965886817E+01  2.748639169E+02  3.067604136E+02  7.937363810E+01  0.00000E+00  9.000E+00
     -11     1     6     6     0     0 -5.177310856E+00 -2.593221872E+01  2.192476061E+01  3.435083177E+01  0.000000000E+00  0.00000E+00  9.000E+00
      12     1     6     6     0     0  9.119618208E+01 -4.372664945E+01  2.529391563E+02  2.724095818E+02  4.672030912E-06  0.00000E+00  9.000E+00
      13     1     5     5     0     0 -3.562418338E+01  2.361763429E+01  6.581675598E+01  7.847751563E+01  0.000000000E+00  0.00000E+00  9.000E+00
     -14     1     5     5     0     0 -5.143145254E+01  6.172269136E+01 -3.522021325E+00  8.041946016E+01  9.902267293E-07  0.00000E+00  9.000E+00
       5     1     4     4   507     0 -9.319980283E-01  5.761729539E+00 -1.845938118E+01  1.993432720E+01  4.750000000E+00  0.00000E+00  9.000E+00
      -5     1     3     3     0   512  5.616470071E+00 -2.641887037E+01 -2.192957933E+01  3.511367821E+01  4.750000000E+00  0.00000E+00  9.000E+00
      21     1     1     2   511   507 -7.109220175E+00  6.122036892E+00 -1.801962682E+01  2.031569093E+01  0.000000000E+00  0.00000E+00  9.000E+00
      21     1     3     3   512   502  3.461512826E+00 -1.146353547E+00 -4.789043071E+00  6.019230103E+00  2.064765462E-07  0.00000E+00  9.000E+00
#rwgt            1          17   30.894033605804960                1     1623275           0         111           0
<weights>
0.10561E+02
</weights>
</event>
<event>
     15  10001  1.35503E+01  1.62273E+01 -1.00000E+00  3.51848E-01
      21    -1     0     0   507   511  0.000000000E+00  0.000000000E+00  7.751431960E+02  7.751431960E+02  0.000000000E+00  0.00000E+00  9.000E+00
      21    -1     0     0   501   502  0.000000000E+00  0.000000000E+00 -1.797118471E+02  1.797118471E+02  0.000000000E+00  0.00000E+00  9.000E+00
      -6     2     1     2     0   502  1.582844940E+01  2.182686439E+02  4.109061681E+02  4.960464077E+02  1.712495806E+02  0.00000E+00  9.000E+00
       6     2     1     2   507     0 -3.193731640E+01 -2.202254538E+02  2.588034703E+02  3.827784507E+02  1.732652977E+02  0.00000E+00  9.000E+00
     -24     2     3     3     0     0  6.774056898E+01  1.244833277E+02  2.856603850E+02  3.306660400E+02  8.748308902E+01  0.00000E+00  9.000E+00
      24     2     4     4     0     0  3.628406681E+00 -5.180625420E+01  1.533324447E+02  1.805328027E+02  7.990119481E+01  0.00000E+00  9.000E+00
     -11     1     6     6     0     0 -1.315389176E+01 -6.622702994E+01  1.379388400E+02  1.535778888E+02  0.000000000E+00  0.00000E+00  9.000E+00
      12     1     6     6     0     0  1.678229844E+01  1.442077574E+01  1.539360472E+01  2.695491384E+01  5.840038640E-07  0.00000E+00  9.000E+00
      13     1     5     5     0     0  8.212699688E+01  1.241100550E+02  2.752407124E+02  3.128987043E+02  0.000000000E+00  0.00000E+00  9.000E+00
     -14     1     5     5     0     0 -1.438642790E+01  3.732726770E-01  1.041967259E+01  1.776733567E+01  1.685873940E-07  0.00000E+00  9.000E+00
       5     1     4     4   512     0 -1.352476060E+01 -4.628850920E+01  3.034508123E+01  5.717457204E+01  4.750000000E+00  0.00000E+00  9.000E+00
      -5     1     3     3     0   513 -5.136667271E+01  9.388007858E+01  1.252720466E+02  1.648261277E+02  4.750000000E+00  0.00000E+00  9.000E+00
      21     1     4     4   507   512 -2.204096248E+01 -1.221306904E+02  7.512594435E+01  1.450710760E+02  1.907348633E-06  0.00000E+00  9.000E+00
      21     1     1     2   501   511  1.610886700E+01  1.956809958E+00 -7.427828948E+01  7.603018473E+01  1.348699152E-06  0.00000E+00  9.000E+00
      21     1     3     3   513   502 -5.454468756E-01 -9.476241388E-02 -2.626347284E-02  5.542400014E-01  3.060815410E-08  0.00000E+00  9.000E+00
#rwgt            1          17   4.1786798329802881                1     1637765           0      100111           0
<weights>
0.14804E+02
</weights>
</event>
<event>
     15  10001  1.35503E+01  4.73160E+01 -1.00000E+00  1.48631E-01
      21    -1     0     0   507   511  0.000000000E+00  0.000000000E+00  1.191867333E+02  1.191867333E+02  0.000000000E+00  0.00000E+00  9.000E+00
      21    -1     0     0   501   502  0.000000000E+00  0.000000000E+00 -4.513624849E+02  4.513624849E+02  0.000000000E+00  0.00000E+00  9.000E+00
      -6     2     1     2     0   502 -6.430223182E+01  5.622320176E+01 -2.217303649E+02  2.787830835E+02  1.458075016E+02  0.00000E+00  9.000E+00
       6     2     1     2   507     0  1.052965799E+02 -7.985091444E+01 -1.106947326E+02  2.444494616E+02  1.733166961E+02  0.00000E+00  9.000E+00
     -24     2     3     3     0     0 -4.951529202E+01  2.870889471E+01 -8.315404272E+01  1.296997903E+02  8.143387502E+01  0.00000E+00  9.000E+00
      24     2     4     4     0     0  1.375329074E+01 -8.665868965E+01 -7.415362778E+01  1.402479660E+02  8.044780886E+01  0.00000E+00  9.000E+00
     -11     1     6     6     0     0  1.560636159E+01 -1.479937265E+01  1.463052298E+01  2.601215400E+01  0.000000000E+00  0.00000E+00  9.000E+00
      12     1     6     6     0     0 -1.853070853E+00 -7.185931699E+01 -8.878415076E+01  1.142358120E+02  2.523185073E-06  0.00000E+00  9.000E+00
      13     1     5     5     0     0 -1.579321134E+01  1.770603700E+01  1.311078136E+01  2.710759781E+01  0.000000000E+00  0.00000E+00  9.000E+00
     -14     1     5     5     0     0 -3.372208067E+01  1.100285771E+01 -9.626482408E+01  1.025921925E+02  2.336015456E-06  0.00000E+00  9.000E+00
       5     1     4     4   512     0  1.956895613E+01  1.162497144E+01  1.905673280E-01  2.325258740E+01  4.750000000E+00  0.00000E+00  9.000E+00
      -5     1     3     3     0   514  1.766175881E+00 -2.952852142E+00 -8.540022823E+01  8.560140299E+01  4.750000000E+00  0.00000E+00  9.000E+00
      21     1     1     2   501   511 -4.099434808E+01  2.362771268E+01  2.493459311E-01  4.731667311E+01  2.998685147E-07  0.00000E+00  9.000E+00
      21     1     4     4   507   512  7.197433304E+01 -4.817196237E+00 -3.673167218E+01  8.094890819E+01  1.261592536E-06  0.00000E+00  9.000E+00
      21     1     3     3   514   502 -1.655311568E+01  3.046715919E+01 -5.317609392E+01  6.348189027E+01  9.536743164E-07  0.00000E+00  9.000E+00
#rwgt            1          17   4.4401009319273435                1     1647871           0       11011           0
<weights>
0.19765E+02
</weights>
</event>
<event>
     15  10001  1.35503E+01  1.61711E+01 -1.00000E+00  2.44598E-01
      21    -1     0     0   502   512  0.000000000E+00  0.000000000E+00  3.577226196E+02  3.577226196E+02  0.000000000E+00  0.00000E+00  9.000E+00
      21    -1     0     0   507   502  0.000000000E+00  0.000000000E+00 -3.124815262E+02  3.124815262E+02  0.000000000E+00  0.00000E+00  9.000E+00
      -6     2     1     2     0   501 -8.103943627E+01 -1.455138017E+02  1.656785912E+02  2.915319825E+02  1.726263148E+02  0.00000E+00  9.000E+00
       6     2     1     2   507     0  9.388119579E+01  1.356855722E+02  1.704840148E+01  2.402385062E+02  1.737804318E+02  0.00000E+00  9.000E+00
     -24     2     3     3     0     0 -5.657505659E+01 -1.235763457E+01  4.164249913E+01  1.068126714E+02  7.950723795E+01  0.00000E+00  9.000E+00
      24     2     4     4     0     0  6.189530980E+01  1.406356742E+02  5.974795529E+01  1.828436416E+02  7.907311089E+01  0.00000E+00  9.000E+00
     -11     1     6     6     0     0  6.658797555E+01  7.043834293E+01  5.697463562E+01  1.124349934E+02  0.000000000E+00  0.00000E+00  9.000E+00
      12     1     6     6     0     0 -4.692665754E+00  7.019733130E+01  2.773319669E+00  7.040864816E+01  2.103334664E-06  0.00000E+00  9.000E+00
      13     1     5     5     0     0 -7.070730305E+01 -2.410300189E+01  1.794946128E+01  7.682877433E+01  0.000000000E+00  0.00000E+00  9.000E+00
     -14     1     5     5     0     0  1.413224646E+01  1.174536732E+01  2.369303784E+01  2.998389711E+01  0.000000000E+00  0.00000E+00  9.000E+00
       5     1     4     4   511     0  1.896735255E+01 -6.627082712E+00 -3.837247121E+01  4.357393412E+01  4.750000000E+00  0.00000E+00  9.000E+00
      -5     1     3     3     0   513 -1.854827275E+01 -1.265496770E+02  1.168025466E+02  1.732750893E+02  4.750000000E+00  0.00000E+00  9.000E+00
      21     1     1     2   501   512 -1.284175952E+01  9.828229496E+00 -1.374858993E+02  1.384336570E+02  1.907348633E-06  0.00000E+00  9.000E+00
      21     1     4     4   507   511  1.301853345E+01  1.676980678E+00 -4.327082606E+00  1.382093055E+01  1.685873940E-07  0.00000E+00  9.000E+00
      21     1     3     3   513   501 -5.916106941E+00 -6.606490144E+00  7.233545446E+00  1.144422182E+01  8.429369702E-08  0.00000E+00  9.000E+00
#rwgt            1          17   21.595116924167755                1     1653907           0       11011           0
<weights>
0.12131E+02
</weights>
</event>
<event>
     15  10001  1.35503E+01  2.29144E+01 -1.00000E+00  2.21216E-01
      -2    -1     0     0     0   511  0.000000000E+00  0.000000000E+00  2.816323992E+01  2.816323992E+01  0.000000000E+00  0.00000E+00  9.000E+00
       2    -1     0     0   501     0  0.000000000E+00  0.000000000E+00 -2.410377032E+03  2.410377032E+03  0.000000000E+00  0.00000E+00  9.000E+00
      -6     2     1     2     0   507  7.821975513E+01  4.235379175E+01 -1.841449932E+03  1.851612196E+03  1.720979260E+02  0.00000E+00  9.000E+00
       6     2     1     2   507     0 -7.853339607E+01 -1.944149816E+01 -3.842244473E+02  4.287204304E+02  1.721258707E+02  0.00000E+00  9.000E+00
     -24     2     3     3     0     0  3.558286752E+01  3.817338587E+01 -1.702108524E+03  1.704722994E+03  7.863655903E+01  0.00000E+00  9.000E+00
      24     2     4     4     0     0 -2.485358938E+01 -1.413934160E+01 -6.262723262E+00  4.688984268E+01  3.663077610E+01  0.00000E+00  9.000E+00
     -11     1     6     6     0     0  9.792628245E-01 -1.748071961E+01  5.439825310E+00  1.833374520E+01  0.000000000E+00  0.00000E+00  9.000E+00
      12     1     6     6     0     0 -2.583285220E+01  3.341378011E+00 -1.170254857E+01  2.855609747E+01  2.016012016E-06  0.00000E+00  9.000E+00
      13     1     5     5     0     0  6.316910548E+00 -2.444997267E+01 -4.554225965E+02  4.561221831E+02  0.000000000E+00  0.00000E+00  9.000E+00
     -14     1     5     5     0     0  2.926595698E+01  6.262335854E+01 -1.246685928E+03  1.248600811E+03  1.525878906E-05  0.00000E+00  9.000E+00
       5     1     4     4   514     0 -4.613793126E+01 -4.805916507E+00 -3.294373204E+02  3.327210785E+02  4.750000000E+00  0.00000E+00  9.000E+00
      -5     1     3     3     0   512  3.477442675E+01 -1.572842514E+00 -9.038743670E+01  9.697518138E+01  4.750000000E+00  0.00000E+00  9.000E+00
      21     1     1     2   501   511  3.136409405E-01 -2.291229358E+01 -1.565394122E+02  1.582076456E+02  3.814697266E-06  0.00000E+00  9.000E+00
      21     1     3     3   512   507  7.862460864E+00  5.753248395E+00 -4.895397113E+01  4.991402055E+01  6.743495762E-07  0.00000E+00  9.000E+00
      21     1     4     4   507   514 -7.541875440E+00 -4.962400599E-01 -4.852440368E+01  4.910950918E+01  6.743495762E-07  0.00000E+00  9.000E+00
#rwgt            1           6   8.1765453187341066                1     1663706           0       11110           0
<weights>
0.11705E+02
</weights>
</event>
<event>
     15  10001  1.35503E+01  2.36798E+01 -1.00000E+00  4.14436E-01
      21    -1     0     0   511   501  0.000000000E+00  0.000000000E+00  2.982386999E+02  2.982386999E+02  0.000000000E+00  0.00000E+00  9.000E+00
      21    -1     0     0   501   502  0.000000000E+00  0.000000000E+00 -1.435306065E+03  1.435306065E+03  0.000000000E+00  0.00000E+00  9.000E+00
      -6     2     1     2     0   502 -3.190619609E+01 -2.080011208E+02 -1.247661252E+03  1.277107838E+03  1.733878822E+02  0.00000E+00  9.000E+00
       6     2     1     2   507     0  1.747181526E+01  2.267729692E+02 -5.342011588E+01  2.907223330E+02  1.730159596E+02  0.00000E+00  9.000E+00
     -24     2     3     3     0     0 -6.351090439E+01 -1.262745690E+02 -5.393109101E+02  5.633274016E+02  8.063871204E+01  0.00000E+00  9.000E+00
      24     2     4     4     0     0  3.455347325E+01  1.567000797E+02 -2.930015472E+00  1.798130327E+02  8.108812640E+01  0.00000E+00  9.000E+00
     -11     1     6     6     0     0  1.713182806E+01  1.286159579E+02  2.998266344E+01  1.331710339E+02  0.000000000E+00  0.00000E+00  9.000E+00
      12     1     6     6     0     0  1.742164519E+01  2.808412176E+01 -3.291267891E+01  4.664199877E+01  1.430511475E-06  0.00000E+00  9.000E+00
      13     1     5     5     0     0 -4.329217695E+01 -9.429677170E+01 -4.916292813E+02  5.024593953E+02  0.000000000E+00  0.00000E+00  9.000E+00
     -14     1     5     5     0     0 -2.021872744E+01 -3.197779734E+01 -4.768162885E+01  6.086800631E+01  1.784161275E-06  0.00000E+00  9.000E+00
       5     1     4     4   512     0  5.516959454E+00  6.950453906E+01 -5.362374026E+01  8.808737600E+01  4.750000000E+00  0.00000E+00  9.000E+00
      -5     1     3     3     0   513  2.747313168E+01 -7.208458740E+01 -6.340572658E+02  6.387504517E+02  4.750000000E+00  0.00000E+00  9.000E+00
      21     1     4     4   507   512 -2.259861745E+01  5.683504530E-01  3.133639850E+00  2.282192436E+01  1.154238983E-06  0.00000E+00  9.000E+00
      21     1     1     2   511   507  1.443438083E+01 -1.877184840E+01  1.640140027E+02  1.657145942E+02  5.046370146E-06  0.00000E+00  9.000E+00
      21     1     3     3   513   502  4.131576626E+00 -9.641964358E+00 -7.429307618E+01  7.502998448E+01  1.348699152E-06  0.00000E+00  9.000E+00
#rwgt            1          17   6.5536330836093022                1     1664717           0      100111           0
<weights>
0.20412E+02
</weights>
</event>
<event>
     14  10001  1.35503E+01  1.66000E+02 -1.00000E+00  3.23932E-01
       2    -1     0     0   507     0  0.000000000E+00  0.000000000E+00  7.573174020E+02  7.573174020E+02  0.000000000E+00  0.00000E+00  9.000E+00
      21    -1     0     0   511   502  0.000000000E+00  0.000000000E+00 -3.395719146E+02  3.395719146E+02  0.000000000E+00  0.00000E+00  9.000E+00
      -6     2     1     2     0   502 -2.678563354E+02 -2.050669796E+02  3.632284058E+02  5.248993174E+02  1.725831280E+02  0.00000E+00  9.000E+00
       6     2     1     2   507     0  1.860498719E+02  6.062421044E+01 -1.556594195E+02  3.041651074E+02  1.731955773E+02  0.00000E+00  9.000E+00
     -24     2     3     3     0     0 -8.709996955E+01 -1.380984591E+02  1.375431950E+02  2.280090175E+02  8.007741536E+01  0.00000E+00  9.000E+00
      24     2     4     4     0     0  1.788301464E+02  5.938927789E+01 -6.771130773E+01  2.157847795E+02  8.044216729E+01  0.00000E+00  9.000E+00
     -11     1     6     6     0     0  6.763962008E+01  2.287775995E+01 -6.821613522E+01  9.875196813E+01  0.000000000E+00  0.00000E+00  9.000E+00
      12     1     6     6     0     0  1.111905263E+02  3.651151793E+01  5.048274885E-01  1.170328114E+02  4.120676277E-06  0.00000E+00  9.000E+00
      13     1     5     5     0     0 -4.032921700E+01 -1.993416030E+01  7.230659948E+01  8.515903252E+01  0.000000000E+00  0.00000E+00  9.000E+00
     -14     1     5     5     0     0 -4.677075255E+01 -1.181642988E+02  6.523659556E+01  1.428499850E+02  3.438521648E-06  0.00000E+00  9.000E+00
       5     1     4     4   507     0  7.219725441E+00  1.234932551E+00 -8.794811180E+01  8.838032792E+01  4.750000000E+00  0.00000E+00  9.000E+00
      -5     1     3     3     0   512 -1.516980774E+02 -5.641957299E+01  1.866167408E+02  2.470705271E+02  4.750000000E+00  0.00000E+00  9.000E+00
       2     1     1     2   511     0  8.180646356E+01  1.444427692E+02  2.101765012E+02  2.678248919E+02  0.000000000E+00  0.00000E+00  9.000E+00
      21     1     3     3   512   502 -2.905828850E+01 -1.054894752E+01  3.906846988E+01  4.981977281E+01  0.000000000E+00  0.00000E+00  9.000E+00
#rwgt            1           8  0.83006765553156903                1     1668837           0         111           0
<weights>
0.16848E+02
</weights>
</event>
<event>
     14  10001  1.35503E+01  9.08257E+01 -1.00000E+00  1.64897E-01
       2    -1     0     0   507     0  0.000000000E+00  0.000000000E+00  3.105845546E+03  3.105845546E+03  0.000000000E+00  0.00000E+00  9.000E+00
      21    -1     0     0   501   502  0.000000000E+00  0.000000000E+00 -4.348000385E+01  4.348000385E+01  0.000000000E+00  0.00000E+00  9.000E+00
      -6     2     1     2     0   502 -2.246227129E+01 -4.558263473E+01  2.183149019E+02  2.836518633E+02  1.738236259E+02  0.00000E+00  9.000E+00
       6     2     1     2   507     0  1.127576191E+02  5.538310788E+01  1.184343858E+03  1.203483595E+03  1.729763539E+02  0.00000E+00  9.000E+00
     -24     2     3     3     0     0 -7.976963716E+00 -7.748585443E+01  5.950280029E+01  1.199248051E+02  6.909186672E+01  0.00000E+00  9.000E+00
      24     2     4     4     0     0  1.167879357E+02 -1.208534815E+01  6.704334540E+02  6.851258977E+02  7.830071455E+01  0.00000E+00  9.000E+00
     -11     1     6     6     0     0  5.862624290E+01 -4.582560892E+00  1.456071885E+02  1.570334027E+02  0.000000000E+00  0.00000E+00  9.000E+00
      12     1     6     6     0     0  5.816169280E+01 -7.502787260E+00  5.248262654E+02  5.280924949E+02  1.078959322E-05  0.00000E+00  9.000E+00
      13     1     5     5     0     0 -3.469130913E+01 -6.693800882E+01  4.371218795E+01  8.714894910E+01  0.000000000E+00  0.00000E+00  9.000E+00
     -14     1     5     5     0     0  2.671434541E+01 -1.054784560E+01  1.579061234E+01  3.277585599E+01  1.846782373E-06  0.00000E+00  9.000E+00
       5     1     4     4   507     0 -4.030316562E+00  6.746845603E+01  5.139104040E+02  5.183576968E+02  4.750000000E+00  0.00000E+00  9.000E+00
      -5     1     3     3     0   511  5.237090501E-01  1.811407380E+01  6.090825503E+01  6.372418670E+01  4.750000000E+00  0.00000E+00  9.000E+00
       2     1     1     2   501     0 -9.029534785E+01 -9.800473150E+00  1.659706782E+03  1.662190092E+03  0.000000000E+00  0.00000E+00  9.000E+00
      21     1     3     3   511   502 -1.500901663E+01  1.378914590E+01  9.790384658E+01  1.000028715E+02  1.907348633E-06  0.00000E+00  9.000E+00
#rwgt            1          17   9.6104327764457071                1     1674157           0         111           0
<weights>
0.19048E+02
</weights>
</event>
<event>
     15  10001 -1.35503E+01  9.35160E+01 -1.00000E+00  1.87811E-01
       2    -1     0     0   507     0  0.000000000E+00  0.000000000E+00  2.351489930E+02  2.351489930E+02  0.000000000E+00  0.00000E+00  9.000E+00
      21    -1     0     0   501   502  0.000000000E+00  0.000000000E+00 -9.164958059E+02  9.164958059E+02  0.000000000E+00  0.00000E+00  9.000E+00
      -6     2     1     2     0   502  9.530022714E+01 -1.419496125E+02 -7.078072802E+02  7.480851953E+02  1.714890310E+02  0.00000E+00  9.000E+00
       6     2     1     2   507     0 -1.609285429E+02  7.533008574E+01  1.165706320E+02  2.736939848E+02  1.724733815E+02  0.00000E+00  9.000E+00
     -24     2     3     3     0     0 -2.687736351E+00 -1.792998715E+01 -2.343679604E+02  2.484831944E+02  8.054097521E+01  0.00000E+00  9.000E+00
      24     2     4     4     0     0 -1.423856139E+02 -4.525281752E+00  7.745507631E+01  1.808317998E+02  8.004192494E+01  0.00000E+00  9.000E+00
     -11     1     6     6     0     0 -2.377693126E+01  2.458565629E+01  4.096941971E+01  5.336937611E+01  0.000000000E+00  0.00000E+00  9.000E+00
      12     1     6     6     0     0 -1.186086827E+02 -2.911093804E+01  3.648565660E+01  1.274624237E+02  3.873843386E-06  0.00000E+00  9.000E+00
      13     1     5     5     0     0  1.716920869E+01 -3.103377749E+01 -2.147156795E+02  2.176251366E+02  0.000000000E+00  0.00000E+00  9.000E+00
     -14     1     5     5     0     0 -1.985694504E+01  1.310379034E+01 -1.965228095E+01  3.085805785E+01  2.396077066E-06  0.00000E+00  9.000E+00
       5     1     4     4   511     0 -1.570925330E+01  7.723524677E+01  3.288660542E+01  8.553452695E+01  4.750000000E+00  0.00000E+00  9.000E+00
      -5     1     3     3     0   512  7.076771078E+01 -1.034443085E+02 -3.702115617E+02  3.908810008E+02  4.750000000E+00  0.00000E+00  9.000E+00
       2     1     1     2   501     0  6.562831575E+01  6.661952673E+01 -9.011016470E+01  1.298656188E+02  0.000000000E+00  0.00000E+00  9.000E+00
      21     1     3     3   512   502  2.722025271E+01 -2.057531686E+01 -1.032277580E+02  1.087210000E+02  2.697398305E-06  0.00000E+00  9.000E+00
      21     1     4     4   507   511 -2.833675668E+00  2.620120716E+00  6.228950269E+00  7.327658004E+00  2.795705652E-07  0.00000E+00  9.000E+00
#rwgt            1          17  -23.958873513528022                1     1683232           0       11110           0
<weights>
-.10833E+02
</weights>
</event>
<event>
     15  10001 -1.35503E+01  8.48585E+01 -1.00000E+00  2.14761E-01
      21    -1     0     0   502   511  0.000000000E+00  0.000000000E+00  3.612057721E+02  3.612057721E+02  0.000000000E+00  0.00000E+00  9.000E+00
      21    -1     0     0   507   502  0.000000000E+00  0.000000000E+00 -4.912558085E+02  4.912558085E+02  0.000000000E+00  0.00000E+00  9.000E+00
      -6     2     1     2     0   501 -9.339424624E+01 -1.547300497E+02  1.908411016E+02  3.144662534E+02  1.726407395E+02  0.00000E+00  9.000E+00
       6     2     1     2   507     0  1.012473132E+01  1.710749571E+02 -4.151969286E+01  2.460203755E+02  1.715604533E+02  0.00000E+00  9.000E+00
     -24     2     3     3     0     0 -3.252095178E+01 -7.726514709E+01  1.805190446E+02  2.146968717E+02  8.049910560E+01  0.00000E+00  9.000E+00
      24     2     4     4     0     0 -1.561452138E+01  1.028138913E+02 -7.099785453E+01  1.671066427E+02  1.098609355E+02  0.00000E+00  9.000E+00
     -11     1     6     6     0     0 -3.967967760E+01  1.109145793E+02 -3.468920811E+01  1.228000891E+02  0.000000000E+00  0.00000E+00  9.000E+00
      12     1     6     6     0     0  2.406515623E+01 -8.100687960E+00 -3.630864642E+01  4.430655363E+01  1.430511475E-06  0.00000E+00  9.000E+00
      13     1     5     5     0     0 -1.185302285E+01 -4.247786868E+00  1.112181885E+02  1.119286527E+02  0.000000000E+00  0.00000E+00  9.000E+00
     -14     1     5     5     0     0 -2.066792893E+01 -7.301736023E+01  6.930085609E+01  1.027682190E+02  9.536743164E-07  0.00000E+00  9.000E+00
       5     1     4     4   512     0  2.388493657E+01  6.530259766E+01  2.773757411E+01  7.501236547E+01  4.750000000E+00  0.00000E+00  9.000E+00
      -5     1     3     3     0   513 -3.981529428E+01 -4.852141268E+01  1.779522208E+00  6.297074198E+01  4.750000000E+00  0.00000E+00  9.000E+00
      21     1     1     2   501   511  8.326951492E+01 -1.634490741E+01 -2.793714451E+02  2.919749518E+02  6.607249480E-06  0.00000E+00  9.000E+00
      21     1     3     3   513   501 -2.105800019E+01 -2.894348994E+01  8.542534769E+00  3.679863967E+01  1.192092896E-07  0.00000E+00  9.000E+00
      21     1     4     4   507   512  1.854316127E+00  2.958468135E+00  1.740587555E+00  3.901367330E+00  7.598131170E-08  0.00000E+00  9.000E+00
#rwgt            1          17  -12.705796328238035                1     1687539           0       11110           0
<weights>
-.11560E+02
</weights>
</event>
<event>
     15  10001 -1.35503E+01  1.43903E+01 -1.00000E+00  3.50653E-01
      21    -1     0     0   507   512  0.000000000E+00  0.000000000E+00  9.280279936E+02  9.280279936E+02  0.000000000E+00  0.00000E+00  9.000E+00
      21    -1     0     0   501   502  0.000000000E+00  0.000000000E+00 -5.341016605E+01  5.341016605E+01  0.000000000E+00  0.00000E+00  9.000E+00
      -6     2     1     2     0   502 -1.656145175E+01  5.984449372E+00  1.454927748E+02  2.267351839E+02  1.730046265E+02  0.00000E+00  9.000E+00
       6     2     1     2   507     0  2.171383336E+00 -5.906762364E+00  5.904442902E+02  6.152776051E+02  1.729232970E+02  0.00000E+00  9.000E+00
     -24     2     3     3     0     0 -5.249467786E+01 -3.853704068E+01  1.288954634E+02  1.667354846E+02  8.334198593E+01  0.00000E+00  9.000E+00
      24     2     4     4     0     0  2.726892054E+01 -3.562007823E+01  1.899155157E+02  2.121804736E+02  8.330826073E+01  0.00000E+00  9.000E+00
     -11     1     6     6     0     0  2.416794968E+01 -5.483505985E+01  1.812052068E+02  1.908567540E+02  0.000000000E+00  0.00000E+00  9.000E+00
      12     1     6     6     0     0  3.100970853E+00  1.921498162E+01  8.710308896E+00  2.132371966E+01  5.840038640E-07  0.00000E+00  9.000E+00
      13     1     5     5     0     0  1.737304275E+01 -3.092371268E+01  4.186448859E+01  5.487015605E+01  0.000000000E+00  0.00000E+00  9.000E+00
     -14     1     5     5     0     0 -6.986772060E+01 -7.613327999E+00  8.703097481E+01  1.118653285E+02  2.861022949E-06  0.00000E+00  9.000E+00
       5     1     4     4   511     0 -2.335309612E+01  2.054424534E+01  3.653123465E+02  3.666648417E+02  4.750000000E+00  0.00000E+00  9.000E+00
      -5     1     3     3     0   513  3.096041167E+01  3.760454761E+01  1.232265498E+01  5.046840019E+01  4.750000000E+00  0.00000E+00  9.000E+00
      21     1     1     2   501   512  1.439006842E+01 -7.768700776E-02  1.386807625E+02  1.394253707E+02  2.697398305E-06  0.00000E+00  9.000E+00
      21     1     4     4   507   511 -1.744441074E+00  9.169070524E+00  3.521642806E+01  3.643228972E+01  6.743495762E-07  0.00000E+00  9.000E+00
      21     1     3     3   513   502  4.972814434E+00  6.916942445E+00  4.274656447E+00  9.531299173E+00  5.960464478E-08  0.00000E+00  9.000E+00
#rwgt            1          17  -26.982790040071901                1     1700156           0       11011           0
<weights>
-.15767E+02
</weights>
</event>
<event>
     15  10001 -1.35503E+01  2.40191E+01 -1.00000E+00  2.24269E-01
      -3    -1     0     0     0   501  0.000000000E+00  0.000000000E+00  2.634524572E+02  2.634524572E+02  0.000000000E+00  0.00000E+00  9.000E+00
      21    -1     0     0   501   502  0.000000000E+00  0.000000000E+00 -9.190564053E+02  9.190564053E+02  0.000000000E+00  0.00000E+00  9.000E+00
      -6     2     1     2     0   502 -7.818179058E+00  2.020832798E+02 -4.511458398E+02  5.232738628E+02  1.714181753E+02  0.00000E+00  9.000E+00
       6     2     1     2   507     0  1.138683081E+01 -2.258358238E+02 -3.840931998E+02  4.780012151E+02  1.727023343E+02  0.00000E+00  9.000E+00
     -24     2     3     3     0     0  4.329814370E+01  1.835120474E+02 -3.445067108E+02  4.023087663E+02  8.727009158E+01  0.00000E+00  9.000E+00
      24     2     4     4     0     0  6.027743020E+01 -1.376122658E+02 -2.943413062E+02  3.392616765E+02  7.675399842E+01  0.00000E+00  9.000E+00
     -11     1     6     6     0     0  6.645680640E+01 -1.032248614E+02 -1.673518033E+02  2.075536200E+02  0.000000000E+00  0.00000E+00  9.000E+00
      12     1     6     6     0     0 -6.179376199E+00 -3.438740447E+01 -1.269895030E+02  1.317080565E+02  3.015782986E-06  0.00000E+00  9.000E+00
      13     1     5     5     0     0 -2.258908298E+00  1.472214528E+02 -2.721035216E+02  3.093858195E+02  0.000000000E+00  0.00000E+00  9.000E+00
     -14     1     5     5     0     0  4.555705199E+01  3.629059458E+01 -7.240318923E+01  9.292294686E+01  2.697398305E-06  0.00000E+00  9.000E+00
       5     1     4     4   511     0 -2.375623963E+01 -2.850434801E+01 -1.633316213E+01  4.081900859E+01  4.750000000E+00  0.00000E+00  9.000E+00
      -5     1     3     3     0   512 -4.356165840E+01  9.694568210E+00 -9.094564990E+01  1.014163521E+02  4.750000000E+00  0.00000E+00  9.000E+00
      21     1     4     4   507   511 -2.513435976E+01 -5.971920991E+01 -7.341873143E+01  9.792053001E+01  2.336015456E-06  0.00000E+00  9.000E+00
      -3     1     1     2     0   507 -3.568651750E+00  2.375254397E+01  1.796350914E+02  1.812337846E+02  0.000000000E+00  0.00000E+00  9.000E+00
      21     1     3     3   512   502 -7.554664352E+00  8.876664242E+00 -1.569347902E+01  1.954874434E+01  4.768371582E-07  0.00000E+00  9.000E+00
#rwgt            1          17  -21.238677402251138                1     1710562           0      100111           0
<weights>
-.14337E+02
</weights>
</event>
<event>
     13  10001  1.35503E+01  1.72304E+02 -1.00000E+00  1.14056E-01
      21    -1     0     0   507   512  0.000000000E+00  0.000000000E+00  5.202274823E+02  5.202274823E+02  0.000000000E+00  0.00000E+00  9.000E+00
      21    -1     0     0   501   502  0.000000000E+00  0.000000000E+00 -2.354972013E+02  2.354972013E+02  0.000000000E+00  0.00000E+00  9.000E+00
      -6     2     1     2     0   502 -2.938126215E+01  2.896154085E+01  9.074225271E+01  2.011536127E+02  1.747186025E+02  0.00000E+00  9.000E+00
       6     2     1     2   507     0 -1.349634783E+01  1.379226434E+02 -7.639809954E+01  2.339506122E+02  1.723119624E+02  0.00000E+00  9.000E+00
     -24     2     3     3     0     0 -9.664131169E+00  1.771762100E+01  1.304673621E+02  1.551553758E+02  8.151164666E+01  0.00000E+00  9.000E+00
      24     2     4     4     0     0 -1.407540417E+01  1.659225393E+02 -8.234393326E+01  2.049291562E+02  8.652762367E+01  0.00000E+00  9.000E+00
     -11     1     6     6     0     0 -1.497144561E+01  1.225900532E+02 -1.439895638E+01  1.243374250E+02  0.000000000E+00  0.00000E+00  9.000E+00
      12     1     6     6     0     0  8.960414393E-01  4.333248611E+01 -6.794497689E+01  8.059173113E+01  1.651812370E-06  0.00000E+00  9.000E+00
      13     1     5     5     0     0 -4.066452481E+00  5.048561334E+01  7.540659345E+01  9.083769881E+01  0.000000000E+00  0.00000E+00  9.000E+00
     -14     1     5     5     0     0 -5.597678688E+00 -3.276799234E+01  5.506076863E+01  6.431767697E+01  1.784161275E-06  0.00000E+00  9.000E+00
       5     1     4     4   507     0  5.790563431E-01 -2.799989584E+01  5.945833724E+00  2.902145606E+01  4.750000000E+00  0.00000E+00  9.000E+00
      -5     1     3     3     0   502 -1.971713098E+01  1.124391985E+01 -3.972510936E+01  4.599823694E+01  4.750000000E+00  0.00000E+00  9.000E+00
      21     1     1     2   501   512  4.287760998E+01 -1.668841843E+02  2.703861278E+02  3.206204586E+02  3.814697266E-06  0.00000E+00  9.000E+00
#rwgt            2         113   1.5966984712341208                1     1724040           0           1           0
<weights>
0.13550E+02
</weights>
</event>
<event>
     15  10001  1.35503E+01  9.91530E+01 -1.00000E+00  2.32965E-01
      21    -1     0     0   502   501  0.000000000E+00  0.000000000E+00  3.735975369E+02  3.735975369E+02  0.000000000E+00  0.00000E+00  9.000E+00
       1    -1     0     0   507     0  0.000000000E+00  0.000000000E+00 -6.091662883E+02  6.091662883E+02  0.000000000E+00  0.00000E+00  9.000E+00
      -6     2     1     2     0   501  2.188362949E+02  1.634330619E+02  1.389296040E+02  3.522613507E+02  1.737438765E+02  0.00000E+00  9.000E+00
       6     2     1     2   507     0 -1.745700816E+02 -7.470979247E+01 -1.410347807E+01  2.567167287E+02  1.721868294E+02  0.00000E+00  9.000E+00
     -24     2     3     3     0     0  6.663400319E+01  1.312451295E+02  7.297218702E+01  1.829207490E+02  8.043435793E+01  0.00000E+00  9.000E+00
      24     2     4     4     0     0 -1.395756974E+02 -8.103057079E+01  4.512511549E+01  1.871271700E+02  8.326447610E+01  0.00000E+00  9.000E+00
     -11     1     6     6     0     0 -6.870841140E+00 -1.457535224E+01 -1.946295148E+01  2.526768354E+01  0.000000000E+00  0.00000E+00  9.000E+00
      12     1     6     6     0     0 -1.327048563E+02 -6.645521854E+01  6.458806698E+01  1.618594864E+02  4.955437110E-06  0.00000E+00  9.000E+00
      13     1     5     5     0     0  1.452966721E+01  4.221760600E+01  6.579981993E+01  7.951763194E+01  0.000000000E+00  0.00000E+00  9.000E+00
     -14     1     5     5     0     0  5.210433598E+01  8.902752348E+01  7.172367090E+00  1.034031170E+02  2.348150683E-06  0.00000E+00  9.000E+00
       5     1     4     4   513     0 -3.530205756E+01  6.080777810E+00 -5.873022326E+01  6.895660049E+01  4.750000000E+00  0.00000E+00  9.000E+00
      -5     1     3     3     0   511  1.202368079E+02  2.646781499E+01  4.795194403E+01  1.322096314E+02  4.750000000E+00  0.00000E+00  9.000E+00
       1     1     1     2   502     0 -4.426621323E+01 -8.872326947E+01 -3.603948773E+02  3.737857458E+02  0.000000000E+00  0.00000E+00  9.000E+00
      21     1     3     3   511   501  3.196548374E+01  5.720117464E+00  1.800547295E+01  3.713097024E+01  1.327458468E-06  0.00000E+00  9.000E+00
      21     1     4     4   507   513  3.076733721E-01  2.400005064E-01 -4.983703003E-01  6.329582160E-01  7.450580597E-09  0.00000E+00  9.000E+00
#rwgt            1          17   25.852296847804940                1     1727311           0       11110           0
<weights>
0.13147E+02
</weights>
</event>
<event>
     15  10001 -1.35503E+01  3.60990E+01 -1.00000E+00  2.57339E-01
      21    -1     0     0   507   511  0.000000000E+00  0.000000000E+00  8.227549082E+01  8.227549082E+01  0.000000000E+00  0.00000E+00  9.000E+00
      21    -1     0     0   501   502  0.000000000E+00  0.000000000E+00 -1.661411209E+03  1.661411209E+03  0.000000000E+00  0.00000E+00  9.000E+00
      -6     2     1     2     0   502  3.880673379E+01 -6.028128408E+01 -1.362155659E+03  1.374822468E+03  1.718399972E+02  0.00000E+00  9.000E+00
       6     2     1     2   507     0 -4.206465570E+01  9.623301316E+01 -2.491281957E+02  3.205253903E+02  1.721668953E+02  0.00000E+00  9.000E+00
     -24     2     3     3     0     0 -1.306056776E+01 -9.133326625E+01 -1.014408728E+03  1.021682702E+03  7.936077943E+01  0.00000E+00  9.000E+00
      24     2     4     4     0     0 -7.597469915E+01  1.068978621E+02 -1.491506367E+02  2.141042262E+02  7.997124097E+01  0.00000E+00  9.000E+00
     -11     1     6     6     0     0 -2.230668945E+01  9.643087726E+00 -7.917539840E+01  8.282101935E+01  0.000000000E+00  0.00000E+00  9.000E+00
      12     1     6     6     0     0 -5.366800970E+01  9.725477441E+01 -6.997523834E+01  1.312832068E+02  4.573661350E-06  0.00000E+00  9.000E+00
      13     1     5     5     0     0  3.216256504E+01 -5.400249600E+01 -4.952530756E+02  4.992257096E+02  0.000000000E+00  0.00000E+00  9.000E+00
     -14     1     5     5     0     0 -4.522313279E+01 -3.733077025E+01 -5.191556521E+02  5.224569927E+02  0.000000000E+00  0.00000E+00  9.000E+00
       5     1     4     4   512     0  2.210577379E+01 -9.761329431E+00 -6.807207284E+01  7.239004343E+01  4.750000000E+00  0.00000E+00  9.000E+00
      -5     1     3     3     0   514  4.714005465E+01  2.530199957E+01 -3.159646089E+02  3.204973830E+02  4.750000000E+00  0.00000E+00  9.000E+00
      21     1     1     2   501   511  3.257921917E+00 -3.595172909E+01  3.214813650E+01  4.833884111E+01  3.504023184E-06  0.00000E+00  9.000E+00
      21     1     4     4   507   512  1.180426965E+01 -9.035195396E-01 -3.190548615E+01  3.403112070E+01  8.920806376E-07  0.00000E+00  9.000E+00
      21     1     3     3   514   502  4.727246896E+00  5.749982607E+00 -3.178232238E+01  3.264238317E+01  3.371747881E-07  0.00000E+00  9.000E+00
#rwgt            1          17  -19.972149635977569                1     1739702           0       11011           0
<weights>
-.14833E+02
</weights>
</event>
<event>
     13  10001  1.35503E+01  1.04620E+01 -1.00000E+00  7.51907E-01
      21    -1     0     0   512   501  0.000000000E+00  0.000000000E+00  3.418927588E+02  3.418927588E+02  0.000000000E+00  0.00000E+00  9.000E+00
      21    -1     0     0   501   502  0.000000000E+00  0.000000000E+00 -1.784819704E+02  1.784819704E+02  0.000000000E+00  0.00000E+00  9.000E+00
      -6     2     1     2     0   502 -7.845555846E+01  1.012972444E+02 -4.135379221E+01  2.192526687E+02  1.730467862E+02  0.00000E+00  9.000E+00
       6     2     1     2   507     0  7.100129829E+01 -9.395641472E+01  2.000122300E+02  2.896312551E+02  1.732408137E+02  0.00000E+00  9.000E+00
     -24     2     3     3     0     0 -6.133025766E+01 -1.311092388E+01 -1.963807980E+01  1.014535194E+02  7.729078594E+01  0.00000E+00  9.000E+00
      24     2     4     4     0     0  1.808447061E+01  9.907985400E+00  1.269256867E+02  1.519642308E+02  8.098012868E+01  0.00000E+00  9.000E+00
     -11     1     6     6     0     0 -9.638916185E+00 -3.176408934E+01  5.720099619E+01  6.613486253E+01  0.000000000E+00  0.00000E+00  9.000E+00
      12     1     6     6     0     0  2.772338680E+01  4.167207474E+01  6.972469051E+01  8.582936825E+01  9.536743164E-07  0.00000E+00  9.000E+00
      13     1     5     5     0     0  1.407677817E+01 -1.646125900E+01  4.665020974E+00  2.215606355E+01  0.000000000E+00  0.00000E+00  9.000E+00
     -14     1     5     5     0     0 -7.540703583E+01  3.350335115E+00 -2.430310078E+01  7.929745586E+01  1.430511475E-06  0.00000E+00  9.000E+00
       5     1     4     4   507     0  5.291682768E+01 -1.038644001E+02  7.308654332E+01  1.376670243E+02  4.750000000E+00  0.00000E+00  9.000E+00
      -5     1     3     3     0   502 -1.712530079E+01  1.144081683E+02 -2.171571241E+01  1.177991493E+02  4.750000000E+00  0.00000E+00  9.000E+00
      21     1     1     2   512   507  7.454260167E+00 -7.340829704E+00  4.752350590E+00  1.149080552E+01  0.000000000E+00  0.00000E+00  9.000E+00
#rwgt            1          17   26.146329426305442                1     1745703           0           1           0
<weights>
0.18402E+02
</weights>
</event>
<event>
     13  10001  1.35503E+01  6.65689E+01 -1.00000E+00  1.32336E-01
      21    -1     0     0   502   501  0.000000000E+00  0.000000000E+00  1.590332152E+02  1.590332152E+02  0.000000000E+00  0.00000E+00  9.000E+00
      21    -1     0     0   511   502  0.000000000E+00  0.000000000E+00 -2.695799803E+03  2.695799803E+03  0.000000000E+00  0.00000E+00  9.000E+00
      -6     2     1     2     0   501  4.913461925E+02  2.667064118E+02 -6.589728003E+02  8.811370848E+02  1.720581868E+02  0.00000E+00  9.000E+00
       6     2     1     2   507     0 -4.251804898E+02 -2.593912274E+02 -1.491765506E+03  1.581969950E+03  1.708869191E+02  0.00000E+00  9.000E+00
     -24     2     3     3     0     0  2.857698004E+02  8.882150950E+01 -3.056401321E+02  4.352994143E+02  8.072205655E+01  0.00000E+00  9.000E+00
      24     2     4     4     0     0 -3.663715013E+02 -1.976817360E+02 -1.058580422E+03  1.140451617E+03  8.204410708E+01  0.00000E+00  9.000E+00
     -11     1     6     6     0     0 -2.338192218E+01 -2.452559133E+01 -4.385820514E+01  5.542347042E+01  0.000000000E+00  0.00000E+00  9.000E+00
      12     1     6     6     0     0 -3.429895792E+02 -1.731561447E+02 -1.014722217E+03  1.085028147E+03  0.000000000E+00  0.00000E+00  9.000E+00
      13     1     5     5     0     0  1.013337456E+02  5.755716018E+00 -1.450016815E+02  1.769947567E+02  0.000000000E+00  0.00000E+00  9.000E+00
     -14     1     5     5     0     0  1.844360548E+02  8.306579348E+01 -1.606384506E+02  2.583046576E+02  8.740569487E-06  0.00000E+00  9.000E+00
       5     1     4     4   507     0 -5.880898845E+01 -6.170949142E+01 -4.331850844E+02  4.415183329E+02  4.750000000E+00  0.00000E+00  9.000E+00
      -5     1     3     3     0   501  2.055763922E+02  1.778849023E+02 -3.533326682E+02  4.458376705E+02  4.750000000E+00  0.00000E+00  9.000E+00
      21     1     1     2   511   507 -6.616570276E+01 -7.315184364E+00 -3.860282815E+02  3.917259837E+02  5.394796609E-06  0.00000E+00  9.000E+00
#rwgt            2         113   8.5038034092756565                1     1763244           0           1           0
<weights>
0.13550E+02
</weights>
</event>
<event>
     15  10001  1.35503E+01  2.88329E+01 -1.00000E+00  1.88908E-01
      21    -1     0     0   512   501  0.000000000E+00  0.000000000E+00  7.039760989E+02  7.039760989E+02  0.000000000E+00  0.00000E+00  9.000E+00
      21    -1     0     0   501   502  0.000000000E+00  0.000000000E+00 -1.719094298E+02  1.719094298E+02  0.000000000E+00  0.00000E+00  9.000E+00
      -6     2     1     2     0   502 -3.591085465E+00  5.938962782E+01 -3.876459814E+01  1.869775078E+02  1.729678310E+02  0.00000E+00  9.000E+00
       6     2     1     2   507     0 -1.778274091E+01 -4.003773534E+01  7.381052179E+01  1.910516585E+02  1.706853742E+02  0.00000E+00  9.000E+00
     -24     2     3     3     0     0  3.873108891E+01  3.656943364E+01  2.672487180E+01  1.023591204E+02  8.322109130E+01  0.00000E+00  9.000E+00
      24     2     4     4     0     0  1.082703412E+01  3.840762213E+01  1.844255881E+01  9.021782440E+01  7.878297886E+01  0.00000E+00  9.000E+00
     -11     1     6     6     0     0 -2.741934460E+01  1.979753355E+00  2.479268806E+01  3.701914725E+01  0.000000000E+00  0.00000E+00  9.000E+00
      12     1     6     6     0     0  3.824637872E+01  3.642786878E+01 -6.350129248E+00  5.319867715E+01  8.719407820E-07  0.00000E+00  9.000E+00
      13     1     5     5     0     0  7.910276546E+00  5.240443605E+01  3.878028450E+01  6.567121027E+01  0.000000000E+00  0.00000E+00  9.000E+00
     -14     1     5     5     0     0  3.082081237E+01 -1.583500241E+01 -1.205541270E+01  3.668791016E+01  1.831327855E-06  0.00000E+00  9.000E+00
       5     1     4     4   513     0 -2.572386583E+01 -7.303901838E+01  4.791844983E+01  9.118747618E+01  4.750000000E+00  0.00000E+00  9.000E+00
      -5     1     3     3     0   511 -2.898331176E+01  2.072760035E+01 -6.020233702E+01  7.011811221E+01  4.750000000E+00  0.00000E+00  9.000E+00
      21     1     1     2   512   507  2.137382637E+01 -1.935189248E+01  4.970207455E+02  4.978563625E+02  9.344061824E-06  0.00000E+00  9.000E+00
      21     1     3     3   511   502 -1.333886262E+01  2.092593826E+00 -5.287132918E+00  1.450027515E+01  2.920019320E-07  0.00000E+00  9.000E+00
      21     1     4     4   507   513 -2.885909206E+00 -5.406339098E+00  7.449513150E+00  9.646357891E+00  8.429369702E-08  0.00000E+00  9.000E+00
#rwgt            1          17   20.125405036878544                1     1767139           0       11110           0
<weights>
0.13479E+02
</weights>
</event>
<event>
     13  10001  1.35503E+01  2.30847E+01 -1.00000E+00  7.50617E-01
       2    -1     0     0   511     0  0.000000000E+00  0.000000000E+00  1.190443152E+03  1.190443152E+03  0.000000000E+00  0.00000E+00  9.000E+00
      -2    -1     0     0     0   502  0.000000000E+00  0.000000000E+00 -3.129654042E+01  3.129654042E+01  0.000000000E+00  0.00000E+00  9.000E+00
      -6     2     1     2     0   502 -1.301736951E+01  1.903389178E+01  6.190470247E+02  6.432472745E+02  1.732515408E+02  0.00000E+00  9.000E+00
       6     2     1     2   507     0  9.707950095E+00 -4.188016026E+01  4.088932635E+02  4.452707848E+02  1.709508079E+02  0.00000E+00  9.000E+00
     -24     2     3     3     0     0 -9.632759986E+00 -3.587442061E+01  5.383943091E+02  5.455037255E+02  7.953689866E+01  0.00000E+00  9.000E+00
      24     2     4     4     0     0  1.265878169E+01  1.360892920E+01  8.576475984E+01  1.173647939E+02  7.793236246E+01  0.00000E+00  9.000E+00
     -11     1     6     6     0     0  4.484993485E+01 -5.940413742E-01  4.546565056E+01  6.386700965E+01  0.000000000E+00  0.00000E+00  9.000E+00
      12     1     6     6     0     0 -3.219115316E+01  1.420297057E+01  4.029910928E+01  5.349778429E+01  1.348699152E-06  0.00000E+00  9.000E+00
      13     1     5     5     0     0 -3.724510176E+01 -2.193113481E+01  1.565073961E+02  1.623660596E+02  0.000000000E+00  0.00000E+00  9.000E+00
     -14     1     5     5     0     0  2.761234177E+01 -1.394328580E+01  3.818869130E+02  3.831376658E+02  7.629394531E-06  0.00000E+00  9.000E+00
       5     1     4     4   507     0 -2.950831591E+00 -5.548908946E+01  3.231285037E+02  3.279059909E+02  4.750000000E+00  0.00000E+00  9.000E+00
      -5     1     3     3     0   502 -3.384609527E+00  5.490831238E+01  8.065271554E+01  9.774354902E+01  4.750000000E+00  0.00000E+00  9.000E+00
      21     1     1     2   511   507  3.309419418E+00  2.284626848E+01  1.312063231E+02  1.332216328E+02  0.000000000E+00  0.00000E+00  9.000E+00
#rwgt            1           8   4.2344415451488651                1     1775028           0           1           0
<weights>
0.95841E+01
</weights>
</event>
<event>
     15  10001  1.35503E+01  5.30449E+00 -1.00000E+00  3.07108E-01
      21    -1     0     0   507   512  0.000000000E+00  0.000000000E+00  6.290679430E+02  6.290679430E+02  0.000000000E+00  0.00000E+00  9.000E+00
      21    -1     0     0   501   502  0.000000000E+00  0.000000000E+00 -1.360301852E+02  1.360301852E+02  0.000000000E+00  0.00000E+00  9.000E+00
      -6     2     1     2     0   502  9.510358892E+01 -5.905531279E+01 -1.759693182E+01  2.066908859E+02  1.728561475E+02  0.00000E+00  9.000E+00
       6     2     1     2   507     0 -1.000060230E+02  5.702953589E+01  4.314909854E+02  4.790859743E+02  1.734512257E+02  0.00000E+00  9.000E+00
     -24     2     3     3     0     0  6.073717741E+01  3.167708589E+01 -1.151983607E+01  1.088019514E+02  8.374195789E+01  0.00000E+00  9.000E+00
      24     2     4     4     0     0 -1.335838832E+02  3.031794811E+01  2.829459932E+02  3.241622750E+02  7.911329602E+01  0.00000E+00  9.000E+00
     -11     1     6     6     0     0 -2.031847240E+01  3.904297855E+01  9.182147519E+01  1.018252316E+02  0.000000000E+00  0.00000E+00  9.000E+00
      12     1     6     6     0     0 -1.132654108E+02 -8.725030443E+00  1.911245180E+02  2.223370433E+02  6.607249480E-06  0.00000E+00  9.000E+00
      13     1     5     5     0     0 -1.614573674E+01  2.409417222E+01  5.920745996E+00  2.960184425E+01  0.000000000E+00  0.00000E+00  9.000E+00
     -14     1     5     5     0     0  7.688291415E+01  7.582913669E+00 -1.744058206E+01  7.920010714E+01  2.861022949E-06  0.00000E+00  9.000E+00
       5     1     4     4   511     0  3.118815796E+01  2.559612296E+01  1.444409420E+02  1.500453629E+02  4.750000000E+00  0.00000E+00  9.000E+00
      -5     1     3     3     0   513  3.456489202E+01 -8.592690969E+01 -6.952417593E+00  9.300034505E+01  4.750000000E+00  0.00000E+00  9.000E+00
      21     1     1     2   501   512  4.902434111E+00  2.025776903E+00  7.914370429E+01  7.932126802E+01  9.536743164E-07  0.00000E+00  9.000E+00
      21     1     3     3   513   502 -1.984805158E-01 -4.805489000E+00  8.753218359E-01  4.888589506E+00  1.219712611E-07  0.00000E+00  9.000E+00
      21     1     4     4   507   511  2.389702221E+00  1.115464815E+00  4.104050167E+00  4.878336421E+00  1.332800375E-07  0.00000E+00  9.000E+00
#rwgt            1          17   49.818500628912261                1     1778439           0       11110           0
<weights>
0.13624E+02
</weights>
</event>
<event>
     15  10001 -1.35503E+01  6.81850E+00 -1.00000E+00  1.62363E-01
      21    -1     0     0   513   501  0.000000000E+00  0.000000000E+00  1.514040889E+02  1.514040889E+02  0.000000000E+00  0.00000E+00  9.000E+00
      21    -1     0     0   501   502  0.000000000E+00  0.000000000E+00 -1.271531640E+03  1.271531640E+03  0.000000000E+00  0.00000E+00  9.000E+00
      -6     2     1     2     0   502  4.730900926E+01  6.203161110E+01 -9.637033538E+02  9.821471727E+02  1.726350241E+02  0.00000E+00  9.000E+00
       6     2     1     2   507     0 -4.679563838E+01 -6.883075882E+01 -2.676084517E+02  3.293954223E+02  1.730882887E+02  0.00000E+00  9.000E+00
     -24     2     3     3     0     0  8.424633679E+01  8.054058907E+01 -7.098598053E+02  7.238893738E+02  8.081244127E+01  0.00000E+00  9.000E+00
      24     2     4     4     0     0 -9.234436293E+00 -6.124192070E+01 -2.599733292E+02  2.783895159E+02  7.796629410E+01  0.00000E+00  9.000E+00
     -11     1     6     6     0     0 -2.395334235E+01 -6.982461975E+01 -2.444046934E+02  2.553094089E+02  0.000000000E+00  0.00000E+00  9.000E+00
      12     1     6     6     0     0  1.471890606E+01  8.582699050E+00 -1.556863583E+01  2.308010702E+01  8.085167388E-07  0.00000E+00  9.000E+00
      13     1     5     5     0     0  3.245072922E+01 -4.974001317E+00 -3.094523289E+02  3.111889046E+02  0.000000000E+00  0.00000E+00  9.000E+00
     -14     1     5     5     0     0  5.179560757E+01  8.551459039E+01 -4.004074764E+02  4.127004692E+02  0.000000000E+00  0.00000E+00  9.000E+00
       5     1     4     4   511     0 -1.309505377E+01 -1.450994129E+01 -1.434946466E+01  2.470806479E+01  4.750000000E+00  0.00000E+00  9.000E+00
      -5     1     3     3     0   512 -1.775547923E+01 -1.185649463E+01 -7.105563901E+01  7.434581254E+01  4.750000000E+00  0.00000E+00  9.000E+00
      21     1     4     4   507   511 -2.446614832E+01  6.921103167E+00  6.714342127E+00  2.629784160E+01  2.780414531E-06  0.00000E+00  9.000E+00
      21     1     3     3   512   502 -1.918184829E+01 -6.652483343E+00 -1.827879096E+02  1.839119863E+02  0.000000000E+00  0.00000E+00  9.000E+00
      21     1     1     2   513   507 -5.133708806E-01  6.799147722E+00  1.111842542E+02  1.113931342E+02  3.568322551E-06  0.00000E+00  9.000E+00
#rwgt            1          17  -2.8441734176556106                1     1787572           0      101101           0
<weights>
-.54645E+02
</weights>
</event>
<event>
     15  10001  1.35503E+01  4.83458E+01 -1.00000E+00  2.69805E-01
      21    -1     0     0   512   501  0.000000000E+00  0.000000000E+00  9.550981039E+02  9.550981039E+02  0.000000000E+00  0.00000E+00  9.000E+00
      21    -1     0     0   507   502  0.000000000E+00  0.000000000E+00 -2.899114624E+02  2.899114624E+02  0.000000000E+00  0.00000E+00  9.000E+00
      -6     2     1     2     0   501 -2.193185224E+02 -1.451502551E+01  8.308251471E+02  8.764406931E+02  1.719493041E+02  0.00000E+00  9.000E+00
       6     2     1     2   507     0  1.955525289E+02 -2.758601207E+01 -1.801901967E+02  3.180805426E+02  1.723512257E+02  0.00000E+00  9.000E+00
     -24     2     3     3     0     0 -1.632352150E+02 -7.284699372E+01  5.947071515E+02  6.263715120E+02  8.192835286E+01  0.00000E+00  9.000E+00
      24     2     4     4     0     0  1.477286419E+02 -1.277370058E+01 -2.019884367E+02  2.630965009E+02  8.020923363E+01  0.00000E+00  9.000E+00
     -11     1     6     6     0     0  1.027116791E+02  2.920188855E+01 -1.211408546E+02  1.614854358E+02  0.000000000E+00  0.00000E+00  9.000E+00
      12     1     6     6     0     0  4.501696286E+01 -4.197558914E+01 -8.084758210E+01  1.016110651E+02  4.046097457E-06  0.00000E+00  9.000E+00
      13     1     5     5     0     0 -4.423159186E+01  1.438271335E+00  2.554251898E+02  2.592306500E+02  0.000000000E+00  0.00000E+00  9.000E+00
     -14     1     5     5     0     0 -1.190036232E+02 -7.428526506E+01  3.392819618E+02  3.671408619E+02  6.607249480E-06  0.00000E+00  9.000E+00
       5     1     4     4   514     0  4.381591577E+01 -1.308309743E+01  2.101627648E+01  5.054946380E+01  4.750000000E+00  0.00000E+00  9.000E+00
      -5     1     3     3     0   511 -5.086364550E+01  5.604997135E+01  2.268466918E+02  2.391875704E+02  4.750000000E+00  0.00000E+00  9.000E+00
      21     1     1     2   512   502  2.376599345E+01  4.210103758E+01  1.455169106E+01  5.048833056E+01  1.634515429E-06  0.00000E+00  9.000E+00
      21     1     3     3   511   501 -5.219661837E+00  2.281996868E+00  9.271303784E+00  1.088161078E+01  1.685873940E-07  0.00000E+00  9.000E+00
      21     1     4     4   507   514  4.007971202E+00 -1.729214066E+00  7.819635396E-01  4.434577930E+00  1.672651196E-07  0.00000E+00  9.000E+00
#rwgt            1          17   31.812088439919627                1     1793929           0       11110           0
<weights>
0.16232E+02
</weights>
</event>
<event>
     15  10001  1.35503E+01  2.09154E+01 -1.00000E+00  1.54355E-01
      21    -1     0     0   502   513  0.000000000E+00  0.000000000E+00  9.833090307E+02  9.833090307E+02  0.000000000E+00  0.00000E+00  9.000E+00
      21    -1     0     0   507   502  0.000000000E+00  0.000000000E+00 -5.069986349E+01  5.069986349E+01  0.000000000E+00  0.00000E+00  9.000E+00
      -6     2     1     2     0   501 -3.385102893E+01 -2.426228552E+00  7.302618640E+02  7.511253405E+02  1.724966908E+02  0.00000E+00  9.000E+00
       6     2     1     2   507     0  1.774978894E+01  1.577559794E+01  1.644291164E+02  2.395794606E+02  1.726194054E+02  0.00000E+00  9.000E+00
     -24     2     3     3     0     0  4.094068170E+01 -3.239004025E+00  4.283647859E+02  4.376235783E+02  7.956994320E+01  0.00000E+00  9.000E+00
      24     2     4     4     0     0 -1.940027250E+01  3.872805449E+01  3.081636259E+01  9.473905777E+01  7.841943691E+01  0.00000E+00  9.000E+00
     -11     1     6     6     0     0 -1.060272145E+01 -1.861869410E+01  2.981192129E+01  3.671272426E+01  0.000000000E+00  0.00000E+00  9.000E+00
      12     1     6     6     0     0 -8.797551048E+00  5.734674858E+01  1.004441305E+00  5.802633350E+01  4.046673642E-06  0.00000E+00  9.000E+00
      13     1     5     5     0     0 -1.255927689E+01  2.568056300E+01  1.486303696E+02  1.513545953E+02  0.000000000E+00  0.00000E+00  9.000E+00
     -14     1     5     5     0     0  5.349995858E+01 -2.891956702E+01  2.797344163E+02  2.862689830E+02  5.394796609E-06  0.00000E+00  9.000E+00
       5     1     4     4   511     0  1.022816885E+01 -2.612256398E+01  7.652822523E+01  8.164640558E+01  4.750000000E+00  0.00000E+00  9.000E+00
      -5     1     3     3     0   512 -5.186008191E+01  1.876468451E+01  2.017618011E+02  2.092175144E+02  4.750000000E+00  0.00000E+00  9.000E+00
      21     1     4     4   507   511  2.692189259E+01  3.170107439E+00  5.708452855E+01  6.319399720E+01  6.743495762E-07  0.00000E+00  9.000E+00
      21     1     3     3   512   501 -2.293162871E+01 -1.795190903E+01  1.001352770E+02  1.042842478E+02  1.348699152E-06  0.00000E+00  9.000E+00
      21     1     1     2   501   513  1.610123999E+01 -1.334936939E+01  3.791818682E+01  4.330409316E+01  6.743495762E-07  0.00000E+00  9.000E+00
#rwgt            1          17   5.1818009997532570                1     1802084           0      101101           0
<weights>
0.17217E+02
</weights>
</event>
<event>
     15  10001 -1.35503E+01  9.78951E+00 -1.00000E+00  1.65089E-01
      21    -1     0     0   511   501  0.000000000E+00  0.000000000E+00  1.526061443E+03  1.526061443E+03  0.000000000E+00  0.00000E+00  9.000E+00
      21    -1     0     0   507   502  0.000000000E+00  0.000000000E+00 -9.037903069E+02  9.037903069E+02  0.000000000E+00  0.00000E+00  9.000E+00
      -6     2     1     2     0   501 -1.338931440E+02  4.262578256E+02  5.699586810E+02  7.446529178E+02  1.732973230E+02  0.00000E+00  9.000E+00
       6     2     1     2   507     0  1.426400399E+02 -4.306539924E+02  8.005072168E+02  9.369400284E+02  1.767364437E+02  0.00000E+00  9.000E+00
     -24     2     3     3     0     0 -9.707177130E+01  2.655103703E+02  2.594545833E+02  3.921202755E+02  8.076474555E+01  0.00000E+00  9.000E+00
      24     2     4     4     0     0  2.062034251E+01 -1.603507293E+02  3.974979662E+02  4.363017472E+02  7.884812392E+01  0.00000E+00  9.000E+00
     -11     1     6     6     0     0  2.296394639E+01 -1.386770394E+02  2.466971322E+02  2.839333357E+02  0.000000000E+00  0.00000E+00  9.000E+00
      12     1     6     6     0     0 -2.343603874E+00 -2.167368987E+01  1.508008340E+02  1.523684115E+02  3.303624740E-06  0.00000E+00  9.000E+00
      13     1     5     5     0     0 -4.098584002E+00  1.205016043E+02  8.971112494E+01  1.502847995E+02  0.000000000E+00  0.00000E+00  9.000E+00
     -14     1     5     5     0     0 -9.297318730E+01  1.450087660E+02  1.697434584E+02  2.418354759E+02  5.722045898E-06  0.00000E+00  9.000E+00
       5     1     4     4   514     0  1.219182376E+02 -2.652302871E+02  3.961856744E+02  4.921349540E+02  4.750000000E+00  0.00000E+00  9.000E+00
      -5     1     3     3     0   512 -2.706130361E+01  7.752786918E+01  1.720084449E+02  1.906629284E+02  4.750000000E+00  0.00000E+00  9.000E+00
      21     1     3     3   512   501 -9.760069114E+00  8.321958610E+01  1.384956528E+02  1.618697140E+02  1.907348633E-06  0.00000E+00  9.000E+00
      21     1     1     2   511   502 -8.746895865E+00  4.396166875E+00 -7.481947622E+02  7.482588032E+02  0.000000000E+00  0.00000E+00  9.000E+00
      21     1     4     4   507   514  1.014597418E-01 -5.072976058E+00  6.823576254E+00  8.503327176E+00  1.192092896E-07  0.00000E+00  9.000E+00
#rwgt            1          17  -4.0922872115261111                1     1805397           0      110110           0
<weights>
-.13779E+02
</weights>
</event>
<event>
     13  10001  1.35503E+01  6.17665E+00 -1.00000E+00  6.50787E-01
      -2    -1     0     0     0   511  0.000000000E+00  0.000000000E+00  8.937489408E+01  8.937489408E+01  0.000000000E+00  0.00000E+00  9.000E+00
       2    -1     0     0   501     0  0.000000000E+00  0.000000000E+00 -7.545838130E+02  7.545838130E+02  0.000000000E+00  0.00000E+00  9.000E+00
      -6     2     1     2     0   507  5.963263278E+01 -1.043224652E+02 -9.069520772E+01  2.278047305E+02  1.709682628E+02  0.00000E+00  9.000E+00
       6     2     1     2   507     0 -6.528279749E+01  1.068177818E+02 -5.346706497E+02  5.758349921E+02  1.733244133E+02  0.00000E+00  9.000E+00
     -24     2     3     3     0     0  5.765569693E+01 -9.496204790E+01 -1.278773329E+02  1.891188336E+02  8.409132552E+01  0.00000E+00  9.000E+00
      24     2     4     4     0     0 -1.114715416E+01  1.210472519E+02 -2.959321492E+02  3.305763942E+02  8.323592506E+01  0.00000E+00  9.000E+00
     -11     1     6     6     0     0  2.357840820E+01  7.565139237E+01 -2.302749261E+02  2.435274442E+02  0.000000000E+00  0.00000E+00  9.000E+00
      12     1     6     6     0     0 -3.472556236E+01  4.539585953E+01 -6.565722311E+01  8.704894997E+01  1.907348633E-06  0.00000E+00  9.000E+00
      13     1     5     5     0     0  2.223368375E+01 -2.449629090E+01  6.111590880E+00  3.364158890E+01  0.000000000E+00  0.00000E+00  9.000E+00
     -14     1     5     5     0     0  3.542201318E+01 -7.046575700E+01 -1.339889238E+02  1.554772447E+02  0.000000000E+00  0.00000E+00  9.000E+00
       5     1     4     4   507     0 -5.413564333E+01 -1.422947013E+01 -2.387385005E+02  2.452585979E+02  4.750000000E+00  0.00000E+00  9.000E+00
      -5     1     3     3     0   507  1.976935848E+00 -9.360417306E+00  3.718212516E+01  3.868589690E+01  4.750000000E+00  0.00000E+00  9.000E+00
      21     1     1     2   501   511  5.650164708E+00 -2.495316562E+00 -3.984306146E+01  4.031898452E+01  6.743495762E-07  0.00000E+00  9.000E+00
#rwgt            1           6   1.6635103563542308                1     1818364           0           1           0
<weights>
0.37305E+01
</weights>
</event>
<event>
     15  10001  1.35503E+01  7.64126E+01 -1.00000E+00  2.35972E-01
      21    -1     0     0   502   501  0.000000000E+00  0.000000000E+00  1.605313171E+03  1.605313171E+03  0.000000000E+00  0.00000E+00  9.000E+00
      21    -1     0     0   507   512  0.000000000E+00  0.000000000E+00 -1.091322011E+02  1.091322011E+02  0.000000000E+00  0.00000E+00  9.000E+00
      -6     2     1     2     0   501 -5.500928755E+00 -1.762583560E+02  1.327972261E+03  1.350768776E+03  1.731146753E+02  0.00000E+00  9.000E+00
       6     2     1     2   507     0  6.803407908E+01  1.323438322E+02  7.188848992E+01  2.407275628E+02  1.750379350E+02  0.00000E+00  9.000E+00
     -24     2     3     3     0     0  1.388746259E+01 -1.242118992E+02  1.199683539E+03  1.208837050E+03  8.015585974E+01  0.00000E+00  9.000E+00
      24     2     4     4     0     0  8.127240446E+01  1.051822462E+02  8.206012386E+01  1.761944771E+02  8.149920972E+01  0.00000E+00  9.000E+00
     -11     1     6     6     0     0  4.548107184E+01  1.630095409E+01 -2.530441259E+00  4.838028662E+01  0.000000000E+00  0.00000E+00  9.000E+00
      12     1     6     6     0     0  3.579133261E+01  8.888129209E+01  8.459056512E+01  1.278141904E+02  1.651812370E-06  0.00000E+00  9.000E+00
      13     1     5     5     0     0 -2.012355251E+01 -4.140457058E+01  2.036358882E+02  2.087746891E+02  0.000000000E+00  0.00000E+00  9.000E+00
     -14     1     5     5     0     0  3.401101509E+01 -8.280732862E+01  9.960476512E+02  1.000062361E+03  2.412626389E-05  0.00000E+00  9.000E+00
       5     1     4     4   513     0 -8.183679418E+00  1.067421191E+01 -3.298388540E+01  3.593620187E+01  4.750000000E+00  0.00000E+00  9.000E+00
      -5     1     3     3     0   511 -2.218268329E+01 -5.024486661E+01  1.068178530E+02  1.202049678E+02  4.750000000E+00  0.00000E+00  9.000E+00
      21     1     1     2   502   512 -6.253315033E+01  4.391452374E+01  9.632021874E+01  1.229490334E+02  4.473129043E-06  0.00000E+00  9.000E+00
      21     1     4     4   507   513 -5.054645956E+00  1.648737416E+01  2.281225146E+01  2.859688390E+01  3.371747881E-07  0.00000E+00  9.000E+00
      21     1     3     3   511   501  2.794291951E+00 -1.801590172E+00  2.147086879E+01  2.172675772E+01  3.371747881E-07  0.00000E+00  9.000E+00
#rwgt            1          17   18.234884512399315                1     1821517           0       11011           0
<weights>
0.19737E+02
</weights>
</event>
<event>
     15  10001  1.35503E+01  4.93074E+01 -1.00000E+00  4.13707E-01
      21    -1     0     0   507   511  0.000000000E+00  0.000000000E+00  1.045974246E+03  1.045974246E+03  0.000000000E+00  0.00000E+00  9.000E+00
      21    -1     0     0   501   502  0.000000000E+00  0.000000000E+00 -1.554062120E+02  1.554062120E+02  0.000000000E+00  0.00000E+00  9.000E+00
      -6     2     1     2     0   502 -1.082372077E+02 -2.192613011E+02  1.295173316E+02  3.255123905E+02  1.714431856E+02  0.00000E+00  9.000E+00
       6     2     1     2   507     0  6.454879950E+01  2.421204091E+02  3.562394519E+02  4.680649725E+02  1.714334603E+02  0.00000E+00  9.000E+00
     -24     2     3     3     0     0 -8.153088537E+01 -1.979683329E+02  1.588260506E+02  2.798219170E+02  8.506376900E+01  0.00000E+00  9.000E+00
      24     2     4     4     0     0  4.666676788E+01  1.616229032E+02  3.345705026E+02  3.826210287E+02  7.849637160E+01  0.00000E+00  9.000E+00
     -11     1     6     6     0     0 -1.071548771E+01  1.029545675E+02  1.816930531E+02  2.091096128E+02  0.000000000E+00  0.00000E+00  9.000E+00
      12     1     6     6     0     0  5.738225559E+01  5.866833566E+01  1.528774496E+02  1.735114159E+02  1.907348633E-06  0.00000E+00  9.000E+00
      13     1     5     5     0     0 -3.030566953E+01 -6.153782301E+00  3.042820477E+01  4.338407874E+01  0.000000000E+00  0.00000E+00  9.000E+00
     -14     1     5     5     0     0 -5.122521584E+01 -1.918145506E+02  1.283978458E+02  2.364378383E+02  7.629394531E-06  0.00000E+00  9.000E+00
       5     1     4     4   513     0  1.674956993E+01  7.280502925E+01  2.013946207E+01  7.751955114E+01  4.750000000E+00  0.00000E+00  9.000E+00
      -5     1     3     3     0   512 -2.559338480E+01 -2.165699557E+01 -2.804231856E+01  4.396567904E+01  4.750000000E+00  0.00000E+00  9.000E+00
      21     1     1     2   501   511  4.368840822E+01 -2.285910798E+01  4.048112506E+02  4.078030952E+02  1.078959322E-05  0.00000E+00  9.000E+00
      21     1     3     3   512   502 -1.112937545E+00  3.640273988E-01 -1.266400396E+00  1.724794448E+00  8.815645848E-08  0.00000E+00  9.000E+00
      21     1     4     4   507   513  1.132461691E+00  7.692476645E+00  1.529487256E+00  7.924392575E+00  1.604904177E-07  0.00000E+00  9.000E+00
#rwgt            1          17   8.0097759594780502                1     1824141           0       11110           0
<weights>
0.54460E+01
</weights>
</event>
<event>
     15  10001  1.35503E+01  7.91660E+01 -1.00000E+00  2.25112E-01
      21    -1     0     0   502   512  0.000000000E+00  0.000000000E+00  1.213233988E+03  1.213233988E+03  0.000000000E+00  0.00000E+00  9.000E+00
      21    -1     0     0   507   502  0.000000000E+00  0.000000000E+00 -6.344310278E+01  6.344310278E+01  0.000000000E+00  0.00000E+00  9.000E+00
      -6     2     1     2     0   501  1.220911509E+02  1.847986452E+01  4.681598617E+02  5.142911090E+02  1.734183789E+02  0.00000E+00  9.000E+00
       6     2     1     2   507     0 -6.282370689E+01  3.400460410E+01  2.000140914E+02  2.743059487E+02  1.735943130E+02  0.00000E+00  9.000E+00
     -24     2     3     3     0     0  5.491459514E+01  7.618943002E+01  2.703786494E+02  2.972157268E+02  8.007579002E+01  0.00000E+00  9.000E+00
      24     2     4     4     0     0 -8.125046146E+01  3.115234879E+01  1.837226665E+02  2.174615269E+02  7.722299637E+01  0.00000E+00  9.000E+00
     -11     1     6     6     0     0  7.952529614E+00  2.268559639E+01  6.052914807E+01  6.512800302E+01  0.000000000E+00  0.00000E+00  9.000E+00
      12     1     6     6     0     0 -8.920299108E+01  8.466752406E+00  1.231935184E+02  1.523335239E+02  1.348699152E-06  0.00000E+00  9.000E+00
      13     1     5     5     0     0  3.633806815E+01 -7.460310725E+00  9.609691692E+01  1.030083923E+02  0.000000000E+00  0.00000E+00  9.000E+00
     -14     1     5     5     0     0  1.857652699E+01  8.364974075E+01  1.742817325E+02  1.942073345E+02  2.697398305E-06  0.00000E+00  9.000E+00
       5     1     4     4   511     0  1.853585607E+01  3.049234643E+00 -1.564702768E+01  2.490517551E+01  4.750000000E+00  0.00000E+00  9.000E+00
      -5     1     3     3     0   514  5.624399716E+01 -4.555264921E+01  1.509466664E+02  1.674690707E+02  4.750000000E+00  0.00000E+00  9.000E+00
      21     1     1     2   501   512 -5.926744400E+01 -5.248446862E+01  4.816169325E+02  4.880800335E+02  9.344061824E-06  0.00000E+00  9.000E+00
      21     1     4     4   507   511 -1.091014906E-01 -1.969793378E-01  3.193845255E+01  3.193924632E+01  4.768371582E-07  0.00000E+00  9.000E+00
      21     1     3     3   514   501  1.093255859E+01 -1.215691630E+01  4.683454588E+01  4.960631148E+01  6.743495762E-07  0.00000E+00  9.000E+00
#rwgt            1          17   24.938998125449142                1     1842704           0       11011           0
<weights>
0.77643E+01
</weights>
</event>
<event>
     15  10001  1.35503E+01  2.91184E+01 -1.00000E+00  2.86156E-01
      -3    -1     0     0     0   501  0.000000000E+00  0.000000000E+00  2.442884831E+02  2.442884831E+02  0.000000000E+00  0.00000E+00  9.000E+00
      21    -1     0     0   501   502  0.000000000E+00  0.000000000E+00 -1.660360617E+02  1.660360617E+02  0.000000000E+00  0.00000E+00  9.000E+00
      -6     2     1     2     0   502  2.047453294E+01 -2.070454104E+01 -2.148388810E+01  1.758422295E+02  1.720786091E+02  0.00000E+00  9.000E+00
       6     2     1     2   507     0 -4.245374037E+01  1.604947129E+00  7.026788163E+01  1.930544467E+02  1.747213447E+02  0.00000E+00  9.000E+00
     -24     2     3     3     0     0  3.159007184E+00 -2.234273180E+01  5.310402091E+01  9.831072086E+01  7.959763695E+01  0.00000E+00  9.000E+00
      24     2     4     4     0     0 -1.883522215E+01 -4.096176410E+01 -7.352483720E+00  9.440196974E+01  8.261380734E+01  0.00000E+00  9.000E+00
     -11     1     6     6     0     0  1.936678808E+01 -9.758384128E+00 -3.247236141E+01  3.904808314E+01  0.000000000E+00  0.00000E+00  9.000E+00
      12     1     6     6     0     0 -3.820201023E+01 -3.120337998E+01  2.511987769E+01  5.535388661E+01  1.011524364E-06  0.00000E+00  9.000E+00
      13     1     5     5     0     0  9.829684758E+00  2.522536555E+01  5.022920529E-01  2.707755651E+01  0.000000000E+00  0.00000E+00  9.000E+00
     -14     1     5     5     0     0 -6.670677575E+00 -4.756809734E+01  5.260172886E+01  7.123316434E+01  1.348699152E-06  0.00000E+00  9.000E+00
       5     1     4     4   512     0 -2.590996150E+01  3.791528959E+01  8.044220322E+01  9.274915552E+01  4.750000000E+00  0.00000E+00  9.000E+00
      -5     1     3     3     0   511  1.329941902E+01  8.131894893E-01 -6.984094616E+01  7.125907720E+01  4.750000000E+00  0.00000E+00  9.000E+00
      -3     1     1     2     0   507  2.197920743E+01  1.909959391E+01  2.946842793E+01  4.142786853E+01  0.000000000E+00  0.00000E+00  9.000E+00
      21     1     4     4   507   512  2.291443280E+00  4.651421637E+00 -2.821837872E+00  5.903321483E+00  1.397852826E-07  0.00000E+00  9.000E+00
      21     1     3     3   511   502  4.016106731E+00  8.250012700E-01 -4.746962851E+00  6.272431481E+00  0.000000000E+00  0.00000E+00  9.000E+00
#rwgt            1          17   7.5451011481180332                1     1848323           0       11011           0
<weights>
-.36335E+01
</weights>
</event>
<event>
     15  10001 -1.35503E+01  1.25417E+01 -1.00000E+00  1.48606E-01
      21    -1     0     0   502   501  0.000000000E+00  0.000000000E+00  2.183441142E+01  2.183441142E+01  0.000000000E+00  0.00000E+00  9.000E+00
      21    -1     0     0   513   502  0.000000000E+00  0.000000000E+00 -1.623891635E+03  1.623891635E+03  0.000000000E+00  0.00000E+00  9.000E+00
      -6     2     1     2     0   501  6.682482917E+01  6.684661336E+01 -7.327489183E+02  7.590315758E+02  1.739940467E+02  0.00000E+00  9.000E+00
       6     2     1     2   507     0 -7.221299141E+01 -5.552128599E+01 -8.349185035E+02  8.500890913E+02  1.313972079E+02  0.00000E+00  9.000E+00
     -24     2     3     3     0     0  3.714787136E+01 -1.973739450E+01 -3.125998725E+02  3.254826488E+02  8.031653174E+01  0.00000E+00  9.000E+00
      24     2     4     4     0     0 -1.261062327E+01 -4.638468851E+01 -4.039002855E+02  4.147240309E+02  8.093215716E+01  0.00000E+00  9.000E+00
     -11     1     6     6     0     0 -2.570680043E+01  1.075122514E+01 -6.394844970E+01  6.975552056E+01  0.000000000E+00  0.00000E+00  9.000E+00
      12     1     6     6     0     0  1.309617715E+01 -5.713591365E+01 -3.399518358E+02  3.449685103E+02  0.000000000E+00  0.00000E+00  9.000E+00
      13     1     5     5     0     0  5.169361668E+01 -4.378560106E+00 -2.896968557E+02  2.943054026E+02  0.000000000E+00  0.00000E+00  9.000E+00
     -14     1     5     5     0     0 -1.454574532E+01 -1.535883440E+01 -2.290301685E+01  3.117724622E+01  6.743495762E-07  0.00000E+00  9.000E+00
       5     1     4     4   512     0 -5.192536524E+01 -9.595171708E+00 -3.944336075E+02  3.979808338E+02  4.750000000E+00  0.00000E+00  9.000E+00
      -5     1     3     3     0   511  1.066633170E+00  7.316967419E+01 -2.518363761E+02  2.622957524E+02  4.750000000E+00  0.00000E+00  9.000E+00
      21     1     3     3   511   501  2.861032464E+01  1.341433368E+01 -1.683126697E+02  1.712531746E+02  1.907348633E-06  0.00000E+00  9.000E+00
      21     1     1     2   513   507  5.388162233E+00 -1.132532738E+01 -3.438980186E+01  3.660537945E+01  4.768371582E-07  0.00000E+00  9.000E+00
      21     1     4     4   507   512 -7.677002896E+00  4.585742293E-01 -3.658461062E+01  3.738422660E+01  4.768371582E-07  0.00000E+00  9.000E+00
#rwgt            1          17  -1.5938370572795475                1     1856600           0      110110           0
<weights>
-.17461E+02
</weights>
</event>
<event>
     15  10001  1.35503E+01  1.49473E+01 -1.00000E+00  2.56770E-01
      21    -1     0     0   512   501  0.000000000E+00  0.000000000E+00  6.366423314E+02  6.366423314E+02  0.000000000E+00  0.00000E+00  9.000E+00
      21    -1     0     0   507   502  0.000000000E+00  0.000000000E+00 -9.307199798E+01  9.307199798E+01  0.000000000E+00  0.00000E+00  9.000E+00
      -6     2     1     2     0   501 -1.216694223E+02  6.316153070E+01  3.706679716E+02  4.301616620E+02  1.698572431E+02  0.00000E+00  9.000E+00
       6     2     1     2   507     0  1.289602528E+02 -7.621012283E+01  1.554855691E+02  2.766012702E+02  1.728981516E+02  0.00000E+00  9.000E+00
     -24     2     3     3     0     0 -6.785656508E+01  8.097902798E+01  3.352337202E+02  3.605955012E+02  8.053168290E+01  0.00000E+00  9.000E+00
      24     2     4     4     0     0  1.528832487E+02 -8.101397967E+01  1.274231387E+02  2.298337989E+02  8.154977759E+01  0.00000E+00  9.000E+00
     -11     1     6     6     0     0  1.102811108E+02 -6.351981081E+01  4.421004794E+01  1.347264566E+02  0.000000000E+00  0.00000E+00  9.000E+00
      12     1     6     6     0     0  4.260213791E+01 -1.749416886E+01  8.321309076E+01  9.510734237E+01  9.536743164E-07  0.00000E+00  9.000E+00
      13     1     5     5     0     0 -6.933680676E+01  2.129526912E+01  2.008871249E+02  2.135807065E+02  0.000000000E+00  0.00000E+00  9.000E+00
     -14     1     5     5     0     0  1.480241677E+00  5.968375886E+01  1.343465954E+02  1.470147947E+02  3.303624740E-06  0.00000E+00  9.000E+00
       5     1     4     4   511     0 -2.346204406E+01  9.734817914E+00  9.462865729E+00  2.751985681E+01  4.750000000E+00  0.00000E+00  9.000E+00
      -5     1     3     3     0   513 -5.500582138E+01 -1.672398782E+01  3.249388888E+01  6.620987441E+01  4.750000000E+00  0.00000E+00  9.000E+00
      21     1     1     2   512   502 -7.290830529E+00  1.304859213E+01  1.741679272E+01  2.295139723E+01  3.371747881E-07  0.00000E+00  9.000E+00
      21     1     4     4   507   511 -4.609518312E-01 -4.930961076E+00  1.859956470E+01  1.924761442E+01  0.000000000E+00  0.00000E+00  9.000E+00
      21     1     3     3   513   501  1.192964206E+00 -1.093509465E+00  2.940362476E+00  3.356286346E+00  5.960464478E-08  0.00000E+00  9.000E+00
#rwgt            1          17   19.508503831875661                1     1861873           0       11011           0
<weights>
0.13823E+02
</weights>
</event>
<event>
     15  10001  1.35503E+01  3.94652E+01 -1.00000E+00  6.82086E-01
      21    -1     0     0   502   501  0.000000000E+00  0.000000000E+00  1.873114926E+03  1.873114926E+03  0.000000000E+00  0.00000E+00  9.000E+00
      21    -1     0     0   507   511  0.000000000E+00  0.000000000E+00 -3.844412660E+01  3.844412660E+01  0.000000000E+00  0.00000E+00  9.000E+00
      -6     2     1     2     0   501  2.003350156E+01  1.410411494E+01  1.315516513E+03  1.327318681E+03  1.749025995E+02  0.00000E+00  9.000E+00
       6     2     1     2   507     0 -8.364342211E+00  2.359640670E+01  5.159643467E+02  5.446465038E+02  1.726089639E+02  0.00000E+00  9.000E+00
     -24     2     3     3     0     0 -4.309259509E+01 -1.052828616E+01  1.021138999E+03  1.025027325E+03  7.738439303E+01  0.00000E+00  9.000E+00
      24     2     4     4     0     0  3.718711016E+01 -1.757107796E+01  1.670620857E+02  1.899696461E+02  8.054254777E+01  0.00000E+00  9.000E+00
     -11     1     6     6     0     0  3.355936137E+01  2.800989063E+01  6.761919221E+01  8.051794746E+01  0.000000000E+00  0.00000E+00  9.000E+00
      12     1     6     6     0     0  3.627748797E+00 -4.558096859E+01  9.944289353E+01  1.094516986E+02  0.000000000E+00  0.00000E+00  9.000E+00
      13     1     5     5     0     0 -2.169665808E+01  2.875888831E+00  6.559801370E+01  6.915283877E+01  0.000000000E+00  0.00000E+00  9.000E+00
     -14     1     5     5     0     0 -2.139593701E+01 -1.340417499E+01  9.555409855E+02  9.558744860E+02  1.525878906E-05  0.00000E+00  9.000E+00
       5     1     4     4   512     0 -4.512519227E+01  4.176718264E+01  3.483231674E+02  3.537405433E+02  4.750000000E+00  0.00000E+00  9.000E+00
      -5     1     3     3     0   514  6.339852903E+01  2.408673898E+01  2.894959471E+02  2.973718386E+02  4.750000000E+00  0.00000E+00  9.000E+00
      21     1     1     2   502   511 -1.166915935E+01 -3.770052164E+01  3.189939802E+00  3.959386731E+01  3.389088863E-06  0.00000E+00  9.000E+00
      21     1     4     4   507   512 -4.262601000E-01 -5.996979737E-01  5.790935566E-01  9.363144129E-01  1.290478414E-08  0.00000E+00  9.000E+00
      21     1     3     3   514   501 -2.724323793E-01  5.456621142E-01  4.881566522E+00  4.919518091E+00  8.429369702E-08  0.00000E+00  9.000E+00
#rwgt            1          17   9.6502315397074039                1     1867259           0       11011           0
<weights>
0.20442E+02
</weights>
</event>
<event>
     15  10001  1.35503E+01  4.95819E+01 -1.00000E+00  2.82048E-01
       2    -1     0     0   502     0  0.000000000E+00  0.000000000E+00  2.792527185E+03  2.792527185E+03  0.000000000E+00  0.00000E+00  9.000E+00
      21    -1     0     0   507   502  0.000000000E+00  0.000000000E+00 -9.382094907E+01  9.382094907E+01  0.000000000E+00  0.00000E+00  9.000E+00
      -6     2     1     2     0   501 -1.152765632E+02  3.786274257E+01  1.986427020E+02  2.907799751E+02  1.742750629E+02  0.00000E+00  9.000E+00
       6     2     1     2   507     0  1.321190579E+02 -8.449640206E+01  2.417055816E+02  3.366659902E+02  1.741473896E+02  0.00000E+00  9.000E+00
     -24     2     3     3     0     0 -1.466813466E+02  2.012768878E+01  1.299637498E+02  2.124358656E+02  7.948508942E+01  0.00000E+00  9.000E+00
      24     2     4     4     0     0 -1.092124487E+00 -3.756607055E+01  1.445125958E+02  1.650093193E+02  7.022665245E+01  0.00000E+00  9.000E+00
     -11     1     6     6     0     0  1.267182518E+00 -2.396202261E+01  4.619018686E+00  2.443603104E+01  0.000000000E+00  0.00000E+00  9.000E+00
      12     1     6     6     0     0 -2.359307005E+00 -1.360404793E+01  1.398935771E+02  1.405732883E+02  4.672030912E-06  0.00000E+00  9.000E+00
      13     1     5     5     0     0 -9.677045777E+01  4.128491026E+01  5.168561452E+01  1.172193161E+02  0.000000000E+00  0.00000E+00  9.000E+00
     -14     1     5     5     0     0 -4.991088886E+01 -2.115722147E+01  7.827813529E+01  9.521654957E+01  1.651812370E-06  0.00000E+00  9.000E+00
       5     1     4     4   512     0  1.081531303E+02 -3.976075985E+01  7.674693657E+01  1.385304024E+02  4.750000000E+00  0.00000E+00  9.000E+00
      -5     1     3     3     0   511  2.819342235E+01  1.890200048E+01  6.207122620E+01  7.090524881E+01  4.750000000E+00  0.00000E+00  9.000E+00
       2     1     1     2   501     0 -1.684249465E+01  4.663365949E+01  2.258357952E+03  2.258902169E+03  0.000000000E+00  0.00000E+00  9.000E+00
      21     1     3     3   511   501  3.211361046E+00 -1.166946694E+00  6.607726031E+00  7.438860642E+00  2.795705652E-07  0.00000E+00  9.000E+00
      21     1     4     4   507   512  2.505805211E+01 -7.169571671E+00  2.044604923E+01  3.312626847E+01  1.168007728E-06  0.00000E+00  9.000E+00
#rwgt            1          17   24.539926020932811                1     1877844           0       11110           0
<weights>
0.14116E+02
</weights>
</event>
<event>
     14  10001  1.35503E+01  1.75667E+01 -1.00000E+00  7.51608E-01
       2    -1     0     0   507     0  0.000000000E+00  0.000000000E+00  3.830724530E+03  3.830724530E+03  0.000000000E+00  0.00000E+00  9.000E+00
      21    -1     0     0   501   502  0.000000000E+00  0.000000000E+00 -3.976184724E+01  3.976184724E+01  0.000000000E+00  0.00000E+00  9.000E+00
      -6     2     1     2     0   502 -1.558295059E+02 -2.721454750E+01  4.613645126E+02  5.163570098E+02  1.695402064E+02  0.00000E+00  9.000E+00
       6     2     1     2   507     0  1.620613228E+02  1.079035511E+01  1.136414547E+03  1.160875393E+03  1.726654346E+02  0.00000E+00  9.000E+00
     -24     2     3     3     0     0 -1.705810652E+02 -1.876906876E+01  4.625506654E+02  4.986679151E+02  7.256992363E+01  0.00000E+00  9.000E+00
      24     2     4     4     0     0  1.808047865E+01 -1.148838945E+00  5.984483381E+02  6.037147535E+02  7.747816903E+01  0.00000E+00  9.000E+00
     -11     1     6     6     0     0  2.901976727E+01 -5.942662908E+00  5.849159070E+02  5.856655021E+02  0.000000000E+00  0.00000E+00  9.000E+00
      12     1     6     6     0     0 -1.093928862E+01  4.793823964E+00  1.353243117E+01  1.804925143E+01  9.386548846E-07  0.00000E+00  9.000E+00
      13     1     5     5     0     0  4.470539697E+00  2.984319333E-01  4.880386430E+01  4.900910077E+01  0.000000000E+00  0.00000E+00  9.000E+00
     -14     1     5     5     0     0 -1.750516049E+02 -1.906750070E+01  4.137468011E+02  4.496588144E+02  7.629394531E-06  0.00000E+00  9.000E+00
       5     1     4     4   512     0  1.427782266E+02  1.107682371E+01  5.348550923E+02  5.537154958E+02  4.750000000E+00  0.00000E+00  9.000E+00
      -5     1     3     3     0   502  1.475155930E+01 -8.445478737E+00 -1.186152730E+00  1.768909470E+01  4.750000000E+00  0.00000E+00  9.000E+00
       2     1     1     2   501     0 -6.231816962E+00  1.642419239E+01  2.193183624E+03  2.193253974E+03  0.000000000E+00  0.00000E+00  9.000E+00
      21     1     4     4   507   512  1.202617571E+00  8.623703365E-01  3.111116497E+00  3.445144043E+00  5.960464478E-08  0.00000E+00  9.000E+00
#rwgt            1          17   10.763690736959298                1     1884309           0         110           0
<weights>
0.44481E+01
</weights>
</event>
<event>
     15  10001  1.35503E+01  9.62160E+01 -1.00000E+00  3.15152E-01
      21    -1     0     0   511   501  0.000000000E+00  0.000000000E+00  7.102072336E+02  7.102072336E+02  0.000000000E+00  0.00000E+00  9.000E+00
       1    -1     0     0   507     0  0.000000000E+00  0.000000000E+00 -1.039853268E+02  1.039853268E+02  0.000000000E+00  0.00000E+00  9.000E+00
      -6     2     1     2     0   501  9.652220864E+01 -1.336010947E+02  2.593818118E+02  3.522908710E+02  1.722328199E+02  0.00000E+00  9.000E+00
       6     2     1     2   507     0 -4.763269168E+01  5.073173187E+01  1.352343491E+02  2.294484513E+02  1.718012826E+02  0.00000E+00  9.000E+00
     -24     2     3     3     0     0  5.680796662E+01 -9.166620687E+01  2.616458090E+02  2.941800330E+02  8.033382770E+01  0.00000E+00  9.000E+00
      24     2     4     4     0     0  2.637713972E+01 -1.084985923E+01  4.303129409E+01  9.512144709E+01  7.989320672E+01  0.00000E+00  9.000E+00
     -11     1     6     6     0     0 -2.031725690E+01 -1.920444859E+01  3.834499076E+01  4.745461084E+01  0.000000000E+00  0.00000E+00  9.000E+00
      12     1     6     6     0     0  4.669439662E+01  8.354589352E+00  4.686303334E+00  4.766683625E+01  2.132480600E-06  0.00000E+00  9.000E+00
      13     1     5     5     0     0  4.729074429E+01 -1.139921599E+01  6.209562487E+01  7.888107028E+01  0.000000000E+00  0.00000E+00  9.000E+00
     -14     1     5     5     0     0  9.517222329E+00 -8.026699087E+01  1.995501841E+02  2.152989627E+02  5.394796609E-06  0.00000E+00  9.000E+00
       5     1     4     4   513     0 -7.366522075E+01  5.786780400E+01  9.001959917E+01  1.300051469E+02  4.750000000E+00  0.00000E+00  9.000E+00
      -5     1     3     3     0   514  2.564221228E+01 -2.699090824E+01 -1.946837973E+00  3.758170906E+01  4.750000000E+00  0.00000E+00  9.000E+00
       1     1     1     2   511     0 -4.888951696E+01  8.286936278E+01  2.116057460E+02  2.324532381E+02  0.000000000E+00  0.00000E+00  9.000E+00
      21     1     4     4   507   513 -3.446106595E-01  3.713787105E+00  2.183455842E+00  4.321857307E+00  7.884953353E-08  0.00000E+00  9.000E+00
      21     1     3     3   514   501  1.407202974E+01 -1.494397955E+01 -3.171592691E-01  2.052912896E+01  4.056805216E-07  0.00000E+00  9.000E+00
#rwgt            1           2  0.13521618879160158                1     1899160           0       11011           0
<weights>
0.20257E+02
</weights>
</event>
<event>
     15  10001 -1.35503E+01  1.53579E+01 -1.00000E+00  1.33265E-01
      21    -1     0     0   511   501  0.000000000E+00  0.000000000E+00  3.619420915E+02  3.619420915E+02  0.000000000E+00  0.00000E+00  9.000E+00
      21    -1     0     0   501   502  0.000000000E+00  0.000000000E+00 -2.567459848E+02  2.567459848E+02  0.000000000E+00  0.00000E+00  9.000E+00
      -6     2     1     2     0   502  8.479416255E+00  6.634949824E+01 -1.671724326E+02  2.494832481E+02  1.726879048E+02  0.00000E+00  9.000E+00
       6     2     1     2   507     0 -1.337981839E+01 -8.090456205E+01  2.890273386E+02  3.465469506E+02  1.727235328E+02  0.00000E+00  9.000E+00
     -24     2     3     3     0     0 -5.498413314E+01  5.470493673E+01 -1.053338387E+02  1.525895760E+02  7.856510760E+01  0.00000E+00  9.000E+00
      24     2     4     4     0     0  4.575959703E+01 -3.394603203E+00  1.542986104E+02  1.800794839E+02  8.071614013E+01  0.00000E+00  9.000E+00
     -11     1     6     6     0     0 -1.489694417E+01 -1.715870081E+01  1.420169391E+01  2.679604578E+01  0.000000000E+00  0.00000E+00  9.000E+00
      12     1     6     6     0     0  6.065654120E+01  1.376409761E+01  1.400969165E+02  1.532834381E+02  2.697398305E-06  0.00000E+00  9.000E+00
      13     1     5     5     0     0  2.284213202E+00  2.727104078E+01 -7.942439420E+01  8.400691453E+01  0.000000000E+00  0.00000E+00  9.000E+00
     -14     1     5     5     0     0 -5.726834634E+01  2.743389596E+01 -2.590944446E+01  6.858266145E+01  1.261592536E-06  0.00000E+00  9.000E+00
       5     1     4     4   513     0 -5.747382368E+01 -7.556192312E+01  1.325093722E+02  1.630771010E+02  4.750000000E+00  0.00000E+00  9.000E+00
      -5     1     3     3     0   512  6.698348408E+00 -1.075488543E+01 -1.244486790E+01  1.838403299E+01  4.750000000E+00  0.00000E+00  9.000E+00
      21     1     3     3   512   502  5.676520099E+01  2.239944694E+01 -4.939372609E+01  7.850963917E+01  1.784161275E-06  0.00000E+00  9.000E+00
      21     1     1     2   511   507  4.900402139E+00  1.455506381E+01 -1.665879920E+01  2.265787753E+01  4.768371582E-07  0.00000E+00  9.000E+00
      21     1     4     4   507   513 -1.665591748E+00 -1.948035723E+00  2.219355945E+00  3.390365741E+00  2.980232239E-08  0.00000E+00  9.000E+00
#rwgt            1          17  -7.1945682677317606                1     1902558           0      110110           0
<weights>
-.14035E+02
</weights>
</event>
<event>
     14  10001  1.35503E+01  6.00680E+01 -1.00000E+00  4.07721E-01
      21    -1     0     0   507   501  0.000000000E+00  0.000000000E+00  2.750459247E+02  2.750459247E+02  0.000000000E+00  0.00000E+00  9.000E+00
       2    -1     0     0   501     0  0.000000000E+00  0.000000000E+00 -4.219331586E+02  4.219331586E+02  0.000000000E+00  0.00000E+00  9.000E+00
      -6     2     1     2     0   502 -8.932037591E+01  5.338768112E+01 -8.951831610E+01  2.203619131E+02  1.723875569E+02  0.00000E+00  9.000E+00
       6     2     1     2   507     0  3.042863472E+01 -6.521680421E+01  1.629668592E+02  2.482402451E+02  1.728753560E+02  0.00000E+00  9.000E+00
     -24     2     3     3     0     0 -8.740314914E+01 -4.001307640E+01 -6.213470042E+01  1.225934759E+02  4.390993720E+01  0.00000E+00  9.000E+00
      24     2     4     4     0     0  1.697415685E+01 -5.160650763E+01  1.387310519E+01  9.784818035E+01  8.019008492E+01  0.00000E+00  9.000E+00
     -11     1     6     6     0     0  3.489905288E+01  7.247161125E-01  2.297411572E+01  4.178850438E+01  0.000000000E+00  0.00000E+00  9.000E+00
      12     1     6     6     0     0 -1.792489604E+01 -5.233122374E+01 -9.101010529E+00  5.605967596E+01  1.951540177E-06  0.00000E+00  9.000E+00
      13     1     5     5     0     0 -4.966726612E+01 -6.133769720E-01 -3.977329549E+01  6.363276349E+01  0.000000000E+00  0.00000E+00  9.000E+00
     -14     1     5     5     0     0 -3.773588302E+01 -3.939969943E+01 -2.236140493E+01  5.896071246E+01  4.768371582E-07  0.00000E+00  9.000E+00
       5     1     4     4   507     0  1.345447787E+01 -1.361029658E+01  1.490937540E+02  1.503920647E+02  4.750000000E+00  0.00000E+00  9.000E+00
      -5     1     3     3     0   512 -1.958690081E+00  9.001758921E+01 -2.781653174E+01  9.435743093E+01  4.750000000E+00  0.00000E+00  9.000E+00
       2     1     1     2   502     0  5.889174119E+01  1.182912309E+01 -2.203357769E+02  2.283769251E+02  0.000000000E+00  0.00000E+00  9.000E+00
      21     1     3     3   512   502  4.146330630E-02  3.383168316E+00  4.329160614E-01  3.411006212E+00  5.161913656E-08  0.00000E+00  9.000E+00
#rwgt            1          17   4.2716374931412142                1     1916087           0         111           0
<weights>
0.11005E+02
</weights>
</event>
<event>
     14  10001  1.35503E+01  1.04991E+01 -1.00000E+00  2.97596E-01
      21    -1     0     0   502   501  0.000000000E+00  0.000000000E+00  1.732915933E+02  1.732915933E+02  0.000000000E+00  0.00000E+00  9.000E+00
      21    -1     0     0   507   511  0.000000000E+00  0.000000000E+00 -2.150301712E+02  2.150301712E+02  0.000000000E+00  0.00000E+00  9.000E+00
      -6     2     1     2     0   501  4.559485465E+01 -7.558067041E+01 -4.697744186E+00  1.932970337E+02  1.719021406E+02  0.00000E+00  9.000E+00
       6     2     1     2   507     0 -5.049752811E+01  8.486474859E+01 -5.726985515E+01  1.722334248E+02  1.289670129E+02  0.00000E+00  9.000E+00
     -24     2     3     3     0     0 -3.735272682E+01 -3.653204879E+01 -2.259271359E+01  9.820978770E+01  8.003071224E+01  0.00000E+00  9.000E+00
      24     2     4     4     0     0 -5.381654789E+01  8.326232002E+01 -1.492252295E+01  1.294614397E+02  8.190694668E+01  0.00000E+00  9.000E+00
     -11     1     6     6     0     0 -5.730375373E+01  9.240694920E+01  3.293875334E+00  1.087824162E+02  0.000000000E+00  0.00000E+00  9.000E+00
      12     1     6     6     0     0  3.487205848E+00 -9.144629183E+00 -1.821639828E+01  2.067902352E+01  3.371747881E-07  0.00000E+00  9.000E+00
      13     1     5     5     0     0 -4.637265032E+01 -2.145035739E-01  1.129087678E+01  4.772790177E+01  0.000000000E+00  0.00000E+00  9.000E+00
     -14     1     5     5     0     0  9.019923491E+00 -3.631754521E+01 -3.388359037E+01  5.048188592E+01  1.784161275E-06  0.00000E+00  9.000E+00
       5     1     4     4   507     0  3.319019773E+00  1.602428574E+00 -4.234733221E+01  4.277198516E+01  4.750000000E+00  0.00000E+00  9.000E+00
      -5     1     3     3     0   513  8.309611340E+01 -3.927591735E+01  1.629537627E+01  9.346477162E+01  4.750000000E+00  0.00000E+00  9.000E+00
      21     1     1     2   502   511  4.902673466E+00 -9.284078180E+00  2.022902146E+01  2.279130588E+01  5.840038640E-07  0.00000E+00  9.000E+00
      21     1     3     3   513   501 -1.485319283E-01  2.272957257E-01  1.599593133E+00  1.622474429E+00  5.161913656E-08  0.00000E+00  9.000E+00
#rwgt            1          17   419.07254546700449                1     1925719           0         111           0
<weights>
0.23632E+02
</weights>
</event>
<event>
     15  10001  1.35503E+01  1.21120E+02 -1.00000E+00  4.01937E-01
      21    -1     0     0   507   501  0.000000000E+00  0.000000000E+00  3.353562438E+02  3.353562438E+02  0.000000000E+00  0.00000E+00  9.000E+00
       2    -1     0     0   501     0  0.000000000E+00  0.000000000E+00 -3.738416607E+02  3.738416607E+02  0.000000000E+00  0.00000E+00  9.000E+00
      -6     2     1     2     0   502  4.163424927E+01 -1.363024285E+02 -4.159405246E+01  2.275588529E+02  1.724563817E+02  0.00000E+00  9.000E+00
       6     2     1     2   507     0  7.181128316E+01  9.387520491E+01  1.741108495E+02  2.720878281E+02  1.724754585E+02  0.00000E+00  9.000E+00
     -24     2     3     3     0     0  5.730801049E+01 -5.973313751E+01  3.181411623E+01  1.199687807E+02  8.079674845E+01  0.00000E+00  9.000E+00
      24     2     4     4     0     0  3.624005151E+01  1.171851657E+01  1.511095865E+01  8.952736167E+01  7.959988977E+01  0.00000E+00  9.000E+00
     -11     1     6     6     0     0 -8.022544074E+00 -2.351854695E+01  2.114833137E+01  3.263028017E+01  0.000000000E+00  0.00000E+00  9.000E+00
      12     1     6     6     0     0  4.426259559E+01  3.523706352E+01 -6.037372721E+00  5.689708150E+01  2.223820461E-06  0.00000E+00  9.000E+00
      13     1     5     5     0     0  5.897755116E+01 -3.488801364E+01 -1.200595968E+01  6.956772315E+01  0.000000000E+00  0.00000E+00  9.000E+00
     -14     1     5     5     0     0 -1.669540669E+00 -2.484512387E+01  4.382007590E+01  5.040105751E+01  1.066240300E-06  0.00000E+00  9.000E+00
       5     1     4     4   512     0  2.742355919E+01  6.413341820E+01  1.253306962E+02  1.435112986E+02  4.750000000E+00  0.00000E+00  9.000E+00
      -5     1     3     3     0   511 -1.505729322E+01 -7.479752662E+01 -6.977527878E+01  1.035014207E+02  4.750000000E+00  0.00000E+00  9.000E+00
       2     1     1     2   502     0 -1.134455324E+02  4.242722359E+01 -1.710022139E+02  2.095512236E+02  0.000000000E+00  0.00000E+00  9.000E+00
      21     1     3     3   511   502 -6.164679929E-01 -1.771764376E+00 -3.632889906E+00  4.088651472E+00  1.115100797E-07  0.00000E+00  9.000E+00
      21     1     4     4   507   512  8.147672463E+00  1.802327015E+01  3.366919474E+01  3.904916782E+01  4.768371582E-07  0.00000E+00  9.000E+00
#rwgt            1          17   21.750651283581870                1     1938261           0       11110           0
<weights>
0.10843E+02
</weights>
</event>
<event>
     15  10001  1.35503E+01  1.59991E+01 -1.00000E+00  2.42714E-01
      21    -1     0     0   507   511  0.000000000E+00  0.000000000E+00  1.188425619E+02  1.188425619E+02  0.000000000E+00  0.00000E+00  9.000E+00
      21    -1     0     0   501   502  0.000000000E+00  0.000000000E+00 -5.373225599E+02  5.373225599E+02  0.000000000E+00  0.00000E+00  9.000E+00
      -6     2     1     2     0   502  6.096925224E+01  6.222209518E+01 -3.255949803E+02  3.787091274E+02  1.726837373E+02  0.00000E+00  9.000E+00
       6     2     1     2   507     0 -6.839949002E+01 -7.639120660E+01 -1.281411687E+02  2.387394819E+02  1.733847583E+02  0.00000E+00  9.000E+00
     -24     2     3     3     0     0 -6.000483040E+00  5.855893304E+01 -2.746204682E+02  2.916085236E+02  7.844727551E+01  0.00000E+00  9.000E+00
      24     2     4     4     0     0 -8.808184294E+01 -2.090915104E+01 -1.314073930E+02  1.788124074E+02  8.068686670E+01  0.00000E+00  9.000E+00
     -11     1     6     6     0     0 -6.267682683E+01 -4.756493035E+01 -6.174408535E+01  1.000156952E+02  0.000000000E+00  0.00000E+00  9.000E+00
      12     1     6     6     0     0 -2.540501611E+01  2.665577932E+01 -6.966330768E+01  7.879671218E+01  9.536743164E-07  0.00000E+00  9.000E+00
      13     1     5     5     0     0  1.544796211E+01  3.712015871E+00 -6.616493001E+00  1.721036243E+01  0.000000000E+00  0.00000E+00  9.000E+00
     -14     1     5     5     0     0 -2.144844515E+01  5.484691717E+01 -2.680039752E+02  2.743981611E+02  5.394796609E-06  0.00000E+00  9.000E+00
       5     1     4     4   513     0  1.896229028E+01 -5.224367371E+01  7.888912775E-01  5.578668968E+01  4.750000000E+00  0.00000E+00  9.000E+00
      -5     1     3     3     0   512  6.660268518E+01  6.027054200E+00 -4.521853595E+01  8.086730829E+01  4.750000000E+00  0.00000E+00  9.000E+00
      21     1     1     2   501   511  7.430237784E+00  1.416911142E+01  3.525615099E+01  3.871651243E+01  1.348699152E-06  0.00000E+00  9.000E+00
      21     1     3     3   512   502  3.670500957E-01 -2.363892061E+00 -5.755976171E+00  6.233295527E+00  1.460009660E-07  0.00000E+00  9.000E+00
      21     1     4     4   507   513  7.200626403E-01 -3.238381853E+00  2.477333057E+00  4.140384802E+00  4.214684851E-08  0.00000E+00  9.000E+00
#rwgt            1          17   3.5642577166651428                1     1949449           0       11110           0
<weights>
-.69762E+01
</weights>
</event>
<event>
     14  10001  1.35503E+01  2.41266E+01 -1.00000E+00  7.45265E-01
      21    -1     0     0   507   512  0.000000000E+00  0.000000000E+00  2.362579245E+02  2.362579245E+02  0.000000000E+00  0.00000E+00  9.000E+00
      21    -1     0     0   501   502  0.000000000E+00  0.000000000E+00 -3.346903733E+02  3.346903733E+02  0.000000000E+00  0.00000E+00  9.000E+00
      -6     2     1     2     0   502 -3.292674588E+01 -6.358520461E+01 -1.503515183E+02  2.401091798E+02  1.729728022E+02  0.00000E+00  9.000E+00
       6     2     1     2   507     0  2.484444632E+01  4.085269590E+01 -7.342273448E+01  2.031964201E+02  1.833349338E+02  0.00000E+00  9.000E+00
     -24     2     3     3     0     0 -1.625666801E+01 -4.997669661E+01 -1.793573502E+02  2.036813913E+02  8.096357606E+01  0.00000E+00  9.000E+00
      24     2     4     4     0     0 -1.191939697E+01  9.009528032E+01 -2.903462785E+01  1.247154567E+02  8.032249978E+01  0.00000E+00  9.000E+00
     -11     1     6     6     0     0 -2.322523494E+01  5.933042622E+01  1.906903918E+01  6.650668590E+01  0.000000000E+00  0.00000E+00  9.000E+00
      12     1     6     6     0     0  1.130583797E+01  3.076485410E+01 -4.810366703E+01  5.820877083E+01  6.743495762E-07  0.00000E+00  9.000E+00
      13     1     5     5     0     0 -4.120454358E+01 -2.565772396E+01 -1.514623608E+02  1.590502435E+02  0.000000000E+00  0.00000E+00  9.000E+00
     -14     1     5     5     0     0  2.494787557E+01 -2.431897264E+01 -2.789498940E+01  4.463114786E+01  8.920806376E-07  0.00000E+00  9.000E+00
       5     1     4     4   511     0  3.070565469E+01 -4.966998146E+01 -3.918670202E+01  7.048478136E+01  4.750000000E+00  0.00000E+00  9.000E+00
      -5     1     3     3     0   502 -1.667007787E+01 -1.360850800E+01  2.900583189E+01  3.642778843E+01  4.750000000E+00  0.00000E+00  9.000E+00
      21     1     1     2   501   512  8.082299567E+00  2.273250870E+01  1.253418040E+02  1.276426979E+02  3.015782986E-06  0.00000E+00  9.000E+00
      21     1     4     4   507   511  6.058188602E+00  4.273970428E-01 -5.201404602E+00  7.996182039E+00  1.576990671E-07  0.00000E+00  9.000E+00
#rwgt            1          17   8.2145704770636243                1     1961580           0         110           0
<weights>
0.13309E+02
</weights>
</event>
<event>
     13  10001  1.35503E+01  2.89126E+02 -1.00000E+00  1.06116E-01
      21    -1     0     0   502   501  0.000000000E+00  0.000000000E+00  2.594442868E+02  2.594442868E+02  0.000000000E+00  0.00000E+00  9.000E+00
      21    -1     0     0   511   502  0.000000000E+00  0.000000000E+00 -1.111475871E+03  1.111475871E+03  0.000000000E+00  0.00000E+00  9.000E+00
      -6     2     1     2     0   501  4.020172361E+01 -7.188724281E+01  7.496869198E+01  2.059548195E+02  1.732429758E+02  0.00000E+00  9.000E+00
       6     2     1     2   507     0 -2.437537722E+02  2.772172639E+02 -6.321686016E+02  7.520251847E+02  1.721610428E+02  0.00000E+00  9.000E+00
     -24     2     3     3     0     0  7.372710745E+01 -9.616991617E+01  3.428665194E+01  1.477208907E+02  7.721106072E+01  0.00000E+00  9.000E+00
      24     2     4     4     0     0 -7.978048492E+01  9.364227217E+01 -1.456948828E+02  2.068038919E+02  8.004404983E+01  0.00000E+00  9.000E+00
     -11     1     6     6     0     0 -4.440799623E+01  8.752084858E+01 -1.392057646E+02  1.703238503E+02  0.000000000E+00  0.00000E+00  9.000E+00
      12     1     6     6     0     0 -3.537248870E+01  6.121423592E+00 -6.489118215E+00  3.648004165E+01  8.085167388E-07  0.00000E+00  9.000E+00
      13     1     5     5     0     0  2.154469894E+01 -8.608129721E+01  1.003984837E+01  8.930264463E+01  0.000000000E+00  0.00000E+00  9.000E+00
     -14     1     5     5     0     0  5.218240851E+01 -1.008861896E+01  2.424680358E+01  5.841824607E+01  2.384185791E-06  0.00000E+00  9.000E+00
       5     1     4     4   507     0 -1.639732873E+02  1.835749918E+02 -4.864737188E+02  5.452212928E+02  4.750000000E+00  0.00000E+00  9.000E+00
      -5     1     3     3     0   501 -3.352538384E+01  2.428267336E+01  4.068204003E+01  5.823392884E+01  4.750000000E+00  0.00000E+00  9.000E+00
      21     1     1     2   511   507  2.035520486E+02 -2.053300211E+02 -2.948316744E+02  4.129401534E+02  7.629394531E-06  0.00000E+00  9.000E+00
#rwgt            2         113   1.6960541905782553                1     2020991           0           1           0
<weights>
0.13550E+02
</weights>
</event>
<event>
     15  10001  1.35503E+01  6.74258E+01 -1.00000E+00  3.52945E-01
      21    -1     0     0   507   501  0.000000000E+00  0.000000000E+00  3.705042130E+02  3.705042130E+02  0.000000000E+00  0.00000E+00  9.000E+00
       2    -1     0     0   501     0  0.000000000E+00  0.000000000E+00 -1.757758247E+03  1.757758247E+03  0.000000000E+00  0.00000E+00  9.000E+00
      -6     2     1     2     0   502 -5.975778523E+01  1.017218335E+02 -1.900313679E+02  2.821068055E+02  1.719127819E+02  0.00000E+00  9.000E+00
       6     2     1     2   507     0  5.633868196E+01 -3.438278192E+01  2.971747861E+02  3.502378816E+02  1.731978562E+02  0.00000E+00  9.000E+00
     -24     2     3     3     0     0 -5.334144427E+01  5.182118528E+01 -2.827154682E+01  1.125828257E+02  7.965467576E+01  0.00000E+00  9.000E+00
      24     2     4     4     0     0  5.497714468E+01 -4.239390415E+01  3.058485327E+02  3.237741295E+02  8.041537406E+01  0.00000E+00  9.000E+00
     -11     1     6     6     0     0 -9.578321050E+00 -5.311591817E+00  1.566526469E+02  1.570350567E+02  0.000000000E+00  0.00000E+00  9.000E+00
      12     1     6     6     0     0  6.455546573E+01 -3.708231233E+01  1.491958858E+02  1.667390728E+02  3.303624740E-06  0.00000E+00  9.000E+00
      13     1     5     5     0     0 -5.706378069E+01  6.304918994E+01 -4.167929964E+01  9.470290089E+01  0.000000000E+00  0.00000E+00  9.000E+00
     -14     1     5     5     0     0  3.722336424E+00 -1.122800465E+01  1.340775282E+01  1.787992485E+01  4.460403188E-07  0.00000E+00  9.000E+00
       5     1     4     4   512     0  6.529668628E-02  1.554391547E+01 -9.416373290E+00  1.878425292E+01  4.750000000E+00  0.00000E+00  9.000E+00
      -5     1     3     3     0   511 -4.173561795E+00  3.877758685E+01 -1.293341000E+02  1.351702326E+02  4.750000000E+00  0.00000E+00  9.000E+00
       2     1     1     2   502     0  3.419103272E+00 -6.733905155E+01 -1.494397452E+03  1.495917773E+03  0.000000000E+00  0.00000E+00  9.000E+00
      21     1     4     4   507   512  1.296240585E+00 -7.532793240E+00  7.426266826E-01  7.679499205E+00  5.253583957E-07  0.00000E+00  9.000E+00
      21     1     3     3   511   502 -2.242779164E+00  1.112306133E+01 -3.242572111E+01  3.435374712E+01  0.000000000E+00  0.00000E+00  9.000E+00
#rwgt            1          17   10.871197435074947                1     2026998           0       11011           0
<weights>
0.96764E+01
</weights>
</event>
<event>
     15  10001  1.35503E+01  3.94625E+01 -1.00000E+00  1.71625E-01
      21    -1     0     0   511   501  0.000000000E+00  0.000000000E+00  2.134265959E+03  2.134265959E+03  0.000000000E+00  0.00000E+00  9.000E+00
      21    -1     0     0   501   502  0.000000000E+00  0.000000000E+00 -2.321197271E+02  2.321197271E+02  0.000000000E+00  0.00000E+00  9.000E+00
      -6     2     1     2     0   502 -4.863199472E+01 -1.446524833E+02  2.620836449E+02  3.495852865E+02  1.738753111E+02  0.00000E+00  9.000E+00
       6     2     1     2   507     0  2.733298434E+01  1.114313931E+02  1.820414966E+03  1.832181144E+03  1.726645481E+02  0.00000E+00  9.000E+00
     -24     2     3     3     0     0 -3.936195922E+01 -1.560800768E+02  1.628123868E+02  2.426919009E+02  8.050547341E+01  0.00000E+00  9.000E+00
      24     2     4     4     0     0 -4.931282473E+01  3.945876285E+01  8.669934058E+02  8.729422156E+02  7.976087643E+01  0.00000E+00  9.000E+00
     -11     1     6     6     0     0 -3.725301678E+01  6.226733418E+01  5.270836281E+02  5.320546581E+02  0.000000000E+00  0.00000E+00  9.000E+00
      12     1     6     6     0     0 -1.205980795E+01 -2.280857133E+01  3.399097777E+02  3.408875575E+02  5.394796609E-06  0.00000E+00  9.000E+00
      13     1     5     5     0     0 -5.845551032E+01 -7.822471408E+01  1.078802241E+02  1.455139008E+02  0.000000000E+00  0.00000E+00  9.000E+00
     -14     1     5     5     0     0  1.909355110E+01 -7.785536274E+01  5.493216275E+01  9.717800011E+01  3.693564745E-06  0.00000E+00  9.000E+00
       5     1     4     4   512     0  7.560125595E+01  7.101739375E+01  9.461760551E+02  9.518564545E+02  4.750000000E+00  0.00000E+00  9.000E+00
      -5     1     3     3     0   513 -5.884009065E+00  9.533828929E+00  1.016280616E+02  1.023539977E+02  4.750000000E+00  0.00000E+00  9.000E+00
      21     1     1     2   511   507  2.129901037E+01  3.322109018E+01 -1.803523796E+02  1.846192555E+02  2.697398305E-06  0.00000E+00  9.000E+00
      21     1     3     3   513   502 -3.386026430E+00  1.893764600E+00 -2.356803541E+00  4.539387874E+00  3.411031706E-07  0.00000E+00  9.000E+00
      21     1     4     4   507   512  1.044553116E+00  9.552364969E-01  7.245505277E+00  7.382473481E+00  1.192092896E-07  0.00000E+00  9.000E+00
#rwgt            1          17   11.344427561312020                1     2039509           0       11110           0
<weights>
0.30015E+02
</weights>
</event>
<event>
     15  10001 -1.35503E+01  2.55838E+01 -1.00000E+00  4.54774E-01
      21    -1     0     0   512   501  0.000000000E+00  0.000000000E+00  4.084655521E+02  4.084655521E+02  0.000000000E+00  0.00000E+00  9.000E+00
      21    -1     0     0   501   502  0.000000000E+00  0.000000000E+00 -4.666913813E+02  4.666913813E+02  0.000000000E+00  0.00000E+00  9.000E+00
      -6     2     1     2     0   502  3.478282626E+02  8.780357659E+01 -6.118686176E+01  4.025843194E+02  1.721520660E+02  0.00000E+00  9.000E+00
       6     2     1     2   507     0 -3.341797258E+02 -1.094426049E+02  7.263102607E+01  3.983537613E+02  1.725012473E+02  0.00000E+00  9.000E+00
     -24     2     3     3     0     0  3.603324069E+02  7.500193169E+01 -4.879249609E+01  3.784456403E+02  7.331890467E+01  0.00000E+00  9.000E+00
      24     2     4     4     0     0 -1.929229834E+02 -1.309305645E+02  6.372885999E+01  2.550441214E+02  8.138824249E+01  0.00000E+00  9.000E+00
     -11     1     6     6     0     0 -1.485076931E+02 -7.036982295E+01  7.213866873E+01  1.794726564E+02  0.000000000E+00  0.00000E+00  9.000E+00
      12     1     6     6     0     0 -4.441529031E+01 -6.056074153E+01 -8.409808743E+00  7.557146492E+01  2.707914517E-06  0.00000E+00  9.000E+00
      13     1     5     5     0     0  2.333753434E+02  8.338848961E+01 -3.846763551E+01  2.507936405E+02  0.000000000E+00  0.00000E+00  9.000E+00
     -14     1     5     5     0     0  1.269570635E+02 -8.386557918E+00 -1.032486058E+01  1.276519998E+02  5.364418030E-06  0.00000E+00  9.000E+00
       5     1     4     4   511     0 -9.950526835E+01  1.646724852E+01  7.062851666E+00  1.012171679E+02  4.750000000E+00  0.00000E+00  9.000E+00
      -5     1     3     3     0   513 -1.393561985E+01  1.185457846E+01 -1.067079299E+01  2.170623998E+01  4.750000000E+00  0.00000E+00  9.000E+00
      21     1     1     2   512   507 -1.364853681E+01  2.163902831E+01 -6.966999346E+01  7.421885268E+01  2.697398305E-06  0.00000E+00  9.000E+00
      21     1     4     4   507   511 -4.175147407E+01  5.020711053E+00  1.839314413E+00  4.209247206E+01  7.679521279E-07  0.00000E+00  9.000E+00
      21     1     3     3   513   502  1.431475579E+00  9.470664444E-01 -1.723572682E+00  2.432439099E+00  3.650024150E-08  0.00000E+00  9.000E+00
#rwgt            1          17  -10.169701021697612                1     2049364           0       11011           0
<weights>
-.18921E+02
</weights>
</event>
<event>
     15  10001  1.35503E+01  2.30798E+01 -1.00000E+00  2.59473E-01
      21    -1     0     0   511   501  0.000000000E+00  0.000000000E+00  3.517921251E+02  3.517921251E+02  0.000000000E+00  0.00000E+00  9.000E+00
      21    -1     0     0   507   502  0.000000000E+00  0.000000000E+00 -8.110214158E+02  8.110214158E+02  0.000000000E+00  0.00000E+00  9.000E+00
      -6     2     1     2     0   501  7.289445623E+01  6.369948206E+01  2.945628402E+02  3.519643887E+02  1.665546106E+02  0.00000E+00  9.000E+00
       6     2     1     2   507     0 -5.018022375E+01 -5.960791197E+01 -7.628716283E+02  7.860476487E+02  1.727038698E+02  0.00000E+00  9.000E+00
     -24     2     3     3     0     0 -8.178759063E+00  2.156065286E+00  1.832089887E+02  2.006327017E+02  8.134129773E+01  0.00000E+00  9.000E+00
      24     2     4     4     0     0 -7.237176604E+01 -9.470944877E+01 -5.986680050E+02  6.156318367E+02  7.994764526E+01  0.00000E+00  9.000E+00
     -11     1     6     6     0     0 -4.245400742E+01 -6.192983169E+01 -1.859845725E+02  2.005689607E+02  0.000000000E+00  0.00000E+00  9.000E+00
      12     1     6     6     0     0 -2.991775862E+01 -3.277961708E+01 -4.126834325E+02  4.150628760E+02  7.629394531E-06  0.00000E+00  9.000E+00
      13     1     5     5     0     0  2.668671832E+01  1.981849593E+01  3.911224008E+01  5.132953380E+01  0.000000000E+00  0.00000E+00  9.000E+00
     -14     1     5     5     0     0 -3.486547739E+01 -1.766243064E+01  1.440967487E+02  1.493031679E+02  4.264961200E-06  0.00000E+00  9.000E+00
       5     1     4     4   512     0  2.502320827E+01  2.792284888E+01 -1.399982312E+02  1.450100469E+02  4.750000000E+00  0.00000E+00  9.000E+00
      -5     1     3     3     0   514  7.320297547E+01  5.437256316E+01  1.039737324E+02  1.383768434E+02  4.750000000E+00  0.00000E+00  9.000E+00
      21     1     1     2   511   502 -2.271423249E+01 -4.091570092E+00  9.079497549E+00  2.480150356E+01  5.196212463E-07  0.00000E+00  9.000E+00
      21     1     4     4   507   512 -2.831665973E+00  7.178687919E+00 -2.420539211E+01  2.540576508E+01  3.371747881E-07  0.00000E+00  9.000E+00
      21     1     3     3   514   501  7.870239822E+00  7.170853617E+00  7.380118978E+00  1.295484359E+01  4.380028980E-07  0.00000E+00  9.000E+00
#rwgt            1          17   16.467353723501329                1     2058740           0       11011           0
<weights>
0.16600E+02
</weights>
</event>
<event>
     15  10001 -1.35503E+01  4.95546E+01 -1.00000E+00  6.66231E-01
      21    -1     0     0   507   512  0.000000000E+00  0.000000000E+00  6.734458680E+02  6.734458680E+02  0.000000000E+00  0.00000E+00  9.000E+00
      21    -1     0     0   501   502  0.000000000E+00  0.000000000E+00 -1.711310861E+02  1.711310861E+02  0.000000000E+00  0.00000E+00  9.000E+00
      -6     2     1     2     0   502  1.233131464E+02 -7.797741785E+01 -1.808011797E+01  2.270472248E+02  1.730229518E+02  0.00000E+00  9.000E+00
       6     2     1     2   507     0 -9.534587718E+01  1.188857255E+02  5.192899125E+02  5.679628170E+02  1.723226517E+02  0.00000E+00  9.000E+00
     -24     2     3     3     0     0  7.051035947E+01  2.268336692E+01  8.833098568E+00  1.100601329E+02  8.092566520E+01  0.00000E+00  9.000E+00
      24     2     4     4     0     0 -6.317720211E+01  2.979356088E+00  2.239523437E+02  2.484247008E+02  8.694794014E+01  0.00000E+00  9.000E+00
     -11     1     6     6     0     0 -4.071213095E+01  3.713235313E+01  6.971563754E+01  8.886258702E+01  0.000000000E+00  0.00000E+00  9.000E+00
      12     1     6     6     0     0 -2.246507116E+01 -3.415299704E+01  1.542367061E+02  1.595621138E+02  1.907348633E-06  0.00000E+00  9.000E+00
      13     1     5     5     0     0  4.449921303E+01 -1.281593542E+01  3.572376567E+01  5.848602906E+01  0.000000000E+00  0.00000E+00  9.000E+00
     -14     1     5     5     0     0  2.601114644E+01  3.549930235E+01 -2.689066710E+01  5.157410381E+01  2.311553887E-06  0.00000E+00  9.000E+00
       5     1     4     4   511     0 -2.007909914E+01  9.896775101E+01  2.404733751E+02  2.608597182E+02  4.750000000E+00  0.00000E+00  9.000E+00
      -5     1     3     3     0   513  5.062828078E+01 -9.604905530E+01 -2.483323428E+01  1.114804730E+02  4.750000000E+00  0.00000E+00  9.000E+00
      21     1     1     2   501   512 -2.796726927E+01 -4.090830768E+01  1.104987390E+00  4.956691220E+01  9.907871610E-07  0.00000E+00  9.000E+00
      21     1     4     4   507   511 -1.208957593E+01  1.693861843E+01  5.486419375E+01  5.867839804E+01  6.743495762E-07  0.00000E+00  9.000E+00
      21     1     3     3   513   502  2.174506204E+00 -4.611729475E+00 -2.079982259E+00  5.506618942E+00  8.429369702E-08  0.00000E+00  9.000E+00
#rwgt            1          17  -51.257458287970266                1     2065149           0       11011           0
<weights>
-.13101E+02
</weights>
</event>
<event>
     15  10001  1.35503E+01  7.56507E+01 -1.00000E+00  4.64222E-01
      21    -1     0     0   507   501  0.000000000E+00  0.000000000E+00  5.052395014E+02  5.052395014E+02  0.000000000E+00  0.00000E+00  9.000E+00
       2    -1     0     0   501     0  0.000000000E+00  0.000000000E+00 -1.809121536E+03  1.809121536E+03  0.000000000E+00  0.00000E+00  9.000E+00
      -6     2     1     2     0   502  5.636020849E+01  1.496444595E+02  1.111072477E+00  2.353662838E+02  1.727023906E+02  0.00000E+00  9.000E+00
       6     2     1     2   507     0 -4.755153579E+01 -7.450833448E+01  3.620805645E+02  4.102054750E+02  1.713287952E+02  0.00000E+00  9.000E+00
     -24     2     3     3     0     0  7.167514984E+01  1.357961353E+02 -5.247738749E+01  1.775033113E+02  7.194186443E+01  0.00000E+00  9.000E+00
      24     2     4     4     0     0 -9.152996691E+00 -7.490027466E+01  1.155226775E+02  1.603915173E+02  8.176870627E+01  0.00000E+00  9.000E+00
     -11     1     6     6     0     0  9.108599227E+00 -6.208576580E+01  1.219736293E+02  1.371684189E+02  0.000000000E+00  0.00000E+00  9.000E+00
      12     1     6     6     0     0 -1.826159592E+01 -1.281450886E+01 -6.450951797E+00  2.322309846E+01  7.633118912E-07  0.00000E+00  9.000E+00
      13     1     5     5     0     0  2.049688207E+01  1.086925807E+02 -4.370772126E+01  1.189309218E+02  0.000000000E+00  0.00000E+00  9.000E+00
     -14     1     5     5     0     0  5.117826776E+01  2.710355467E+01 -8.769666232E+00  5.857238951E+01  1.896139827E-06  0.00000E+00  9.000E+00
       5     1     4     4   511     0 -3.791277556E+01 -1.095082423E-01  2.459123788E+02  2.488631172E+02  4.750000000E+00  0.00000E+00  9.000E+00
      -5     1     3     3     0   512 -1.466526741E+01  1.422594549E+01  5.047645450E+01  5.466152716E+01  4.750000000E+00  0.00000E+00  9.000E+00
       2     1     1     2   502     0 -8.808672700E+00 -7.513612507E+01 -1.667073672E+03  1.668789279E+03  0.000000000E+00  0.00000E+00  9.000E+00
      21     1     3     3   512   502 -6.496739379E-01 -3.776212923E-01  3.112005475E+00  3.201445321E+00  8.429369702E-08  0.00000E+00  9.000E+00
      21     1     4     4   507   511 -4.857635443E-01  5.014484280E-01  6.455081923E-01  9.508404563E-01  2.787751993E-08  0.00000E+00  9.000E+00
#rwgt            1          17   52.719064542875095                1     2070897           0       11110           0
<weights>
0.13521E+02
</weights>
</event>
<event>
     15  10001  1.35503E+01  4.06328E+00 -1.00000E+00  3.83337E-01
      -2    -1     0     0     0   511  0.000000000E+00  0.000000000E+00  2.574616102E+01  2.574616102E+01  0.000000000E+00  0.00000E+00  9.000E+00
       2    -1     0     0   501     0  0.000000000E+00  0.000000000E+00 -1.412043541E+03  1.412043541E+03  0.000000000E+00  0.00000E+00  9.000E+00
      -6     2     1     2     0   507  6.670851805E+01 -1.547400602E+01 -6.389169824E+02  6.659032833E+02  1.747077589E+02  0.00000E+00  9.000E+00
       6     2     1     2   507     0 -6.333521267E+01  1.773919699E+01 -7.011600245E+02  7.254877855E+02  1.743018035E+02  0.00000E+00  9.000E+00
     -24     2     3     3     0     0  7.056139484E+01 -7.231766667E+01 -4.516829937E+02  4.699820818E+02  8.158967524E+01  0.00000E+00  9.000E+00
      24     2     4     4     0     0  2.545108976E+01 -2.067930987E+01 -2.692977305E+02  2.827548800E+02  7.970986550E+01  0.00000E+00  9.000E+00
     -11     1     6     6     0     0  1.122431460E+01  2.036528289E+01 -2.318235904E+01  3.283522127E+01  0.000000000E+00  0.00000E+00  9.000E+00
      12     1     6     6     0     0  1.422677515E+01 -4.104459276E+01 -2.461153715E+02  2.499196587E+02  9.344061824E-06  0.00000E+00  9.000E+00
      13     1     5     5     0     0 -1.303946154E+01 -7.432199618E+00 -1.404435733E+02  1.412432740E+02  0.000000000E+00  0.00000E+00  9.000E+00
     -14     1     5     5     0     0  8.360085637E+01 -6.488546705E+01 -3.112394204E+02  3.287388079E+02  7.629394531E-06  0.00000E+00  9.000E+00
       5     1     4     4   513     0 -8.450146389E+01  3.506131684E+01 -3.958933612E+02  4.063544134E+02  4.750000000E+00  0.00000E+00  9.000E+00
      -5     1     3     3     0   512 -2.740440138E+00  5.469594666E+01 -1.825891774E+02  1.906843643E+02  4.750000000E+00  0.00000E+00  9.000E+00
      21     1     1     2   501   511 -3.373305378E+00 -2.265190968E+00 -4.622037350E+01  4.639863366E+01  6.743495762E-07  0.00000E+00  9.000E+00
      21     1     4     4   507   513 -4.284838545E+00  3.357190026E+00 -3.596893272E+01  3.637849210E+01  4.768371582E-07  0.00000E+00  9.000E+00
      21     1     3     3   512   507 -1.112436648E+00  2.147713993E+00 -4.644811294E+00  5.236837084E+00  8.429369702E-08  0.00000E+00  9.000E+00
#rwgt            1           6   12.344978197732575                1     2085411           0       11011           0
<weights>
0.16248E+02
</weights>
</event>
<event>
     13  10001  1.35503E+01  4.59614E+01 -1.00000E+00  7.52597E-01
      21    -1     0     0   512   501  0.000000000E+00  0.000000000E+00  6.037898124E+02  6.037898124E+02  0.000000000E+00  0.00000E+00  9.000E+00
      21    -1     0     0   501   502  0.000000000E+00  0.000000000E+00 -3.961652333E+02  3.961652333E+02  0.000000000E+00  0.00000E+00  9.000E+00
      -6     2     1     2     0   502 -1.884786611E+01 -4.636557139E+01  3.449426759E+01  1.905483581E+02  1.805929511E+02  0.00000E+00  9.000E+00
       6     2     1     2   507     0 -2.264856455E+01  2.660466218E+01  4.734551147E+02  5.055853015E+02  1.738849789E+02  0.00000E+00  9.000E+00
     -24     2     3     3     0     0  2.056570520E+01 -7.363817779E+01 -2.582704609E+01  1.133573738E+02  7.960733905E+01  0.00000E+00  9.000E+00
      24     2     4     4     0     0 -4.171760902E+01  4.524474242E+01  1.487246890E+02  1.797272143E+02  7.997120006E+01  0.00000E+00  9.000E+00
     -11     1     6     6     0     0 -5.638108665E+01  6.305383549E+00  1.051428641E+02  1.194722004E+02  0.000000000E+00  0.00000E+00  9.000E+00
      12     1     6     6     0     0  1.466347762E+01  3.893935888E+01  4.358182484E+01  6.025501392E+01  1.430511475E-06  0.00000E+00  9.000E+00
      13     1     5     5     0     0 -3.673787710E+00  3.521455341E+00 -3.185186336E+01  3.225582991E+01  0.000000000E+00  0.00000E+00  9.000E+00
     -14     1     5     5     0     0  2.423949291E+01 -7.715963313E+01  6.024817272E+00  8.110154391E+01  1.719260824E-06  0.00000E+00  9.000E+00
       5     1     4     4   507     0  1.906904448E+01 -1.864008024E+01  3.247304258E+02  3.258580872E+02  4.750000000E+00  0.00000E+00  9.000E+00
      -5     1     3     3     0   502 -3.941357132E+01  2.727260640E+01  6.032131368E+01  7.719098424E+01  4.750000000E+00  0.00000E+00  9.000E+00
      21     1     1     2   512   507  4.149643066E+01  1.976090920E+01 -3.003248032E+02  3.038213862E+02  3.814697266E-06  0.00000E+00  9.000E+00
#rwgt            1          17   49.052754128959926                1     2086430           0           1           0
<weights>
0.12695E+02
</weights>
</event>
<event>
     15  10001  1.35503E+01  4.52874E+01 -1.00000E+00  2.86432E-01
      21    -1     0     0   502   511  0.000000000E+00  0.000000000E+00  2.399960000E+02  2.399960000E+02  0.000000000E+00  0.00000E+00  9.000E+00
      21    -1     0     0   507   502  0.000000000E+00  0.000000000E+00 -1.052491717E+03  1.052491717E+03  0.000000000E+00  0.00000E+00  9.000E+00
      -6     2     1     2     0   501 -1.095248024E+02  2.520082555E+02  5.178362312E+01  3.300075738E+02  1.752701115E+02  0.00000E+00  9.000E+00
       6     2     1     2   507     0  1.234928209E+02 -2.089287306E+02 -4.135650176E+02  5.094963118E+02  1.721882011E+02  0.00000E+00  9.000E+00
     -24     2     3     3     0     0 -9.091867613E+01  2.233513554E+02  9.827983992E+01  2.709879504E+02  7.499005748E+01  0.00000E+00  9.000E+00
      24     2     4     4     0     0  5.115536108E+01 -7.107742724E+01 -2.802912899E+02  3.041275759E+02  7.912966335E+01  0.00000E+00  9.000E+00
     -11     1     6     6     0     0  6.795401115E+01 -3.785923734E+01 -1.550156591E+02  1.734385311E+02  0.000000000E+00  0.00000E+00  9.000E+00
      12     1     6     6     0     0 -1.679865007E+01 -3.321818990E+01 -1.252756308E+02  1.306890449E+02  2.336015456E-06  0.00000E+00  9.000E+00
      13     1     5     5     0     0  1.013756246E+01  5.173385039E+01  1.274417824E+01  5.423629346E+01  0.000000000E+00  0.00000E+00  9.000E+00
     -14     1     5     5     0     0 -1.010562386E+02  1.716175050E+02  8.553566168E+01  2.167516569E+02  7.325311420E-06  0.00000E+00  9.000E+00
       5     1     4     4   512     0  4.271636972E+01 -6.975066803E+01 -6.710705782E+01  1.059045025E+02  4.750000000E+00  0.00000E+00  9.000E+00
      -5     1     3     3     0   513 -1.413905693E+01  2.651770813E+01 -4.394228406E+01  5.344706357E+01  4.750000000E+00  0.00000E+00  9.000E+00
      21     1     1     2   501   511 -1.396801849E+01 -4.307952491E+01 -4.507143223E+02  4.529838312E+02  7.629394531E-06  0.00000E+00  9.000E+00
      21     1     4     4   507   512  2.962109008E+01 -6.810063532E+01 -6.616666993E+01  9.946423336E+01  2.697398305E-06  0.00000E+00  9.000E+00
      21     1     3     3   513   501 -4.467069327E+00  2.139192007E+00 -2.553932737E+00  5.572559847E+00  2.980232239E-08  0.00000E+00  9.000E+00
#rwgt            1          17   4.0910812739723976                1     2098004           0       11011           0
<weights>
0.14386E+02
</weights>
</event>
<event>
     15  10001  1.35503E+01  5.02797E+01 -1.00000E+00  4.70679E-01
      21    -1     0     0   502   501  0.000000000E+00  0.000000000E+00  2.606862486E+02  2.606862486E+02  0.000000000E+00  0.00000E+00  9.000E+00
      21    -1     0     0   512   502  0.000000000E+00  0.000000000E+00 -3.542329977E+02  3.542329977E+02  0.000000000E+00  0.00000E+00  9.000E+00
      -6     2     1     2     0   501 -6.193286095E+01 -8.622682474E+01  1.503417104E+02  2.527580395E+02  1.732433319E+02  0.00000E+00  9.000E+00
       6     2     1     2   507     0  2.125701836E+01  1.157823445E+02 -2.283297215E+02  3.095292085E+02  1.726744250E+02  0.00000E+00  9.000E+00
     -24     2     3     3     0     0 -9.672489252E+01 -2.738741591E+01  6.891652802E+01  1.456094935E+02  7.966719139E+01  0.00000E+00  9.000E+00
      24     2     4     4     0     0  1.693647825E+01  1.978840672E+01 -3.415393496E+01  9.216039307E+01  8.153907923E+01  0.00000E+00  9.000E+00
     -11     1     6     6     0     0 -2.318389472E+01  6.238213582E+00 -4.267486816E+01  4.896481038E+01  0.000000000E+00  0.00000E+00  9.000E+00
      12     1     6     6     0     0  4.012037297E+01  1.355019314E+01  8.520933201E+00  4.319558269E+01  1.174075341E-06  0.00000E+00  9.000E+00
      13     1     5     5     0     0  1.097761485E-01 -2.868431033E+01  3.859318065E+00  2.894297922E+01  0.000000000E+00  0.00000E+00  9.000E+00
     -14     1     5     5     0     0 -9.683466867E+01  1.296894418E+00  6.505720996E+01  1.166665143E+02  0.000000000E+00  0.00000E+00  9.000E+00
       5     1     4     4   511     0  5.685990518E+00  7.630225819E+01 -1.385504320E+02  1.583450340E+02  4.750000000E+00  0.00000E+00  9.000E+00
      -5     1     3     3     0   514  3.498868639E+01 -5.868458465E+01  8.180743214E+01  1.066916450E+02  4.750000000E+00  0.00000E+00  9.000E+00
      21     1     1     2   512   507  4.067584259E+01 -2.955551979E+01 -1.555873798E+01  5.263199833E+01  8.085167388E-07  0.00000E+00  9.000E+00
      21     1     4     4   507   511 -1.365450401E+00  1.969167961E+01 -5.562535453E+01  5.902378137E+01  1.348699152E-06  0.00000E+00  9.000E+00
      21     1     3     3   514   501 -1.966548218E-01 -1.548241687E-01 -3.822497514E-01  4.569009899E-01  5.268356064E-09  0.00000E+00  9.000E+00
#rwgt            1          17   21.127636896683683                1     2104076           0       11011           0
<weights>
0.13374E+02
</weights>
</event>
<event>
     13  10001  1.35503E+01  7.29962E+01 -1.00000E+00  1.30305E-01
      21    -1     0     0   502   501  0.000000000E+00  0.000000000E+00  4.020098826E+02  4.020098826E+02  0.000000000E+00  0.00000E+00  9.000E+00
      21    -1     0     0   507   511  0.000000000E+00  0.000000000E+00 -4.809964027E+02  4.809964027E+02  0.000000000E+00  0.00000E+00  9.000E+00
      -6     2     1     2     0   501  3.186580400E+02  5.830708840E+00  1.750357613E+02  4.026446081E+02  1.729399290E+02  0.00000E+00  9.000E+00
       6     2     1     2   507     0 -2.768246836E+02 -6.565054998E+01 -1.876504298E+02  3.817023351E+02  1.718781215E+02  0.00000E+00  9.000E+00
     -24     2     3     3     0     0  1.620287174E+02  4.352091449E+01  1.501732111E+02  2.395679230E+02  8.181333118E+01  0.00000E+00  9.000E+00
      24     2     4     4     0     0 -1.367679877E+02  6.990149094E-01 -1.578666334E+02  2.238169975E+02  8.041270621E+01  0.00000E+00  9.000E+00
     -11     1     6     6     0     0 -3.996489831E+01 -3.472349175E+01 -3.513584533E+01  6.354086561E+01  0.000000000E+00  0.00000E+00  9.000E+00
      12     1     6     6     0     0 -9.680308944E+01  3.542250666E+01 -1.227307880E+02  1.602761318E+02  1.348699152E-06  0.00000E+00  9.000E+00
      13     1     5     5     0     0  7.539381366E+01  2.459623616E+01  1.238518010E+02  1.470662115E+02  0.000000000E+00  0.00000E+00  9.000E+00
     -14     1     5     5     0     0  8.663490377E+01  1.892467833E+01  2.632141008E+01  9.250171149E+01  1.215700987E-06  0.00000E+00  9.000E+00
       5     1     4     4   507     0 -1.400566958E+02 -6.634956489E+01 -2.978379643E+01  1.578853376E+02  4.750000000E+00  0.00000E+00  9.000E+00
      -5     1     3     3     0   501  1.566293226E+02 -3.769020565E+01  2.486255026E+01  1.630766850E+02  4.750000000E+00  0.00000E+00  9.000E+00
      21     1     1     2   502   511 -4.183335644E+01  5.981984114E+01 -6.637185162E+01  9.865934215E+01  1.348699152E-06  0.00000E+00  9.000E+00
#rwgt            2         113  0.48567124069368245                1     2117169           0           1           0
<weights>
0.13550E+02
</weights>
</event>
<event>
     15  10001  1.35503E+01  4.20215E+02 -1.00000E+00  4.32981E-01
      21    -1     0     0   507   501  0.000000000E+00  0.000000000E+00  1.577182808E+02  1.577182808E+02  0.000000000E+00  0.00000E+00  9.000E+00
       2    -1     0     0   501     0  0.000000000E+00  0.000000000E+00 -4.212917843E+03  4.212917843E+03  0.000000000E+00  0.00000E+00  9.000E+00
      -6     2     1     2     0   502 -2.746500243E+02 -2.046279613E+02 -1.277165864E+03  1.333406334E+03  1.717980471E+02  0.00000E+00  9.000E+00
       6     2     1     2   507     0  1.603277642E+02 -1.997367724E+02 -9.805310641E+01  3.245048886E+02  1.734625055E+02  0.00000E+00  9.000E+00
     -24     2     3     3     0     0 -1.190268678E+02 -1.393918722E+02 -8.689141459E+02  8.915840318E+02  7.945315317E+01  0.00000E+00  9.000E+00
      24     2     4     4     0     0  1.813057717E+01 -1.224487641E+02 -3.476768530E+01  1.504842947E+02  7.819407483E+01  0.00000E+00  9.000E+00
     -11     1     6     6     0     0  1.529712062E+01 -1.001379736E+02 -5.915734247E+01  1.173081703E+02  0.000000000E+00  0.00000E+00  9.000E+00
      12     1     6     6     0     0  2.833456550E+00 -2.231079054E+01  2.438965718E+01  3.317612436E+01  4.548736579E-06  0.00000E+00  9.000E+00
      13     1     5     5     0     0 -2.183381480E+01 -5.801298240E+01 -1.631949822E+02  1.745703979E+02  0.000000000E+00  0.00000E+00  9.000E+00
     -14     1     5     5     0     0 -9.719305297E+01 -8.137888977E+01 -7.057191636E+02  7.170136339E+02  1.078959322E-05  0.00000E+00  9.000E+00
       5     1     4     4   512     0  6.327672612E+01 -3.345063075E+01 -2.506149367E+01  7.598374650E+01  4.750000000E+00  0.00000E+00  9.000E+00
      -5     1     3     3     0   511 -1.490503227E+02 -6.380503056E+01 -3.923058417E+02  4.245156258E+02  4.750000000E+00  0.00000E+00  9.000E+00
       2     1     1     2   502     0  1.143222601E+02  4.043647337E+02 -2.679980593E+03  2.712724902E+03  0.000000000E+00  0.00000E+00  9.000E+00
      21     1     4     4   507   512  7.892046090E+01 -4.383737754E+01 -3.822392744E+01  9.803684740E+01  2.611744678E-06  0.00000E+00  9.000E+00
      21     1     3     3   511   502 -6.572833813E+00 -1.431058587E+00 -1.594587611E+01  1.730667611E+01  2.384185791E-07  0.00000E+00  9.000E+00
#rwgt            1          17   15.173889369914470                1     2117512           0       11011           0
<weights>
0.26391E+02
</weights>
</event>
<event>
     15  10001  1.35503E+01  3.88064E+01 -1.00000E+00  7.32451E-01
      -2    -1     0     0     0   501  0.000000000E+00  0.000000000E+00  2.445860678E+02  2.445860678E+02  0.000000000E+00  0.00000E+00  9.000E+00
      21    -1     0     0   501   502  0.000000000E+00  0.000000000E+00 -7.843236922E+02  7.843236922E+02  0.000000000E+00  0.00000E+00  9.000E+00
      -6     2     1     2     0   502 -5.782044961E+01  1.373338111E+02 -6.471966448E+02  6.858240555E+02  1.711354960E+02  0.00000E+00  9.000E+00
       6     2     1     2   507     0  9.623349806E+01 -1.428453426E+02  1.929896970E+01  2.467626346E+02  1.756521266E+02  0.00000E+00  9.000E+00
     -24     2     3     3     0     0 -5.806628113E+01  1.529825186E+02 -4.195864250E+02  4.575642576E+02  8.085133159E+01  0.00000E+00  9.000E+00
      24     2     4     4     0     0  8.621744016E+01 -1.037714613E+02 -4.490804924E+01  1.643557377E+02  8.242640629E+01  0.00000E+00  9.000E+00
     -11     1     6     6     0     0  1.583266784E+01 -2.375518057E+01  2.413016909E+01  3.737976772E+01  0.000000000E+00  0.00000E+00  9.000E+00
      12     1     6     6     0     0  7.038477232E+01 -8.001628076E+01 -6.903821832E+01  1.269759700E+02  1.348699152E-06  0.00000E+00  9.000E+00
      13     1     5     5     0     0 -3.021618637E+01  8.490694260E+01 -3.276917937E+02  3.398589685E+02  0.000000000E+00  0.00000E+00  9.000E+00
     -14     1     5     5     0     0 -2.785009475E+01  6.807557599E+01 -9.189463129E+01  1.177052891E+02  0.000000000E+00  0.00000E+00  9.000E+00
       5     1     4     4   511     0  2.492950183E+00 -3.024852822E+01  6.379085116E+01  7.080270794E+01  4.750000000E+00  0.00000E+00  9.000E+00
      -5     1     3     3     0   512  7.061394077E-01 -1.481553811E+01 -2.234484849E+02  2.239905952E+02  4.750000000E+00  0.00000E+00  9.000E+00
      -2     1     1     2     0   507 -3.841304845E+01  5.511531512E+00  8.816005066E+01  9.632306994E+01  0.000000000E+00  0.00000E+00  9.000E+00
      21     1     4     4   507   511  7.523107724E+00 -8.825353074E+00  4.161677735E-01  1.160418900E+01  2.406203041E-07  0.00000E+00  9.000E+00
      21     1     3     3   512   502 -4.603078955E-01 -8.331693675E-01 -4.161734870E+00  4.269202698E+00  8.429369702E-08  0.00000E+00  9.000E+00
#rwgt            1          17   41.319637921319156                1     2123255           0       11011           0
<weights>
-.27194E+01
</weights>
</event>
<event>
     13  10001  1.35503E+01  1.31140E+03 -1.00000E+00  8.82514E-02
      21    -1     0     0   502   501  0.000000000E+00  0.000000000E+00  1.243340957E+03  1.243340957E+03  0.000000000E+00  0.00000E+00  9.000E+00
       1    -1     0     0   507     0  0.000000000E+00  0.000000000E+00 -2.232750488E+03  2.232750488E+03  0.000000000E+00  0.00000E+00  9.000E+00
      -6     2     1     2     0   501 -5.960324103E+02 -3.796958623E+02  1.260316856E+02  7.384176853E+02  1.730696689E+02  0.00000E+00  9.000E+00
       6     2     1     2   507     0 -2.130079783E+02 -6.524008392E+02  3.345182903E+02  7.826411447E+02  1.721203679E+02  0.00000E+00  9.000E+00
     -24     2     3     3     0     0 -5.854125505E+02 -3.631391395E+02  1.473330488E+02  7.090371294E+02  8.030401411E+01  0.00000E+00  9.000E+00
      24     2     4     4     0     0 -1.591739952E+02 -6.057967587E+02  3.263494318E+02  7.108126629E+02  8.015370549E+01  0.00000E+00  9.000E+00
     -11     1     6     6     0     0 -2.748541637E+01 -8.533957174E+01  7.988283848E+01  1.200814661E+02  0.000000000E+00  0.00000E+00  9.000E+00
      12     1     6     6     0     0 -1.316885789E+02 -5.204571869E+02  2.464665934E+02  5.907311968E+02  8.529922400E-06  0.00000E+00  9.000E+00
      13     1     5     5     0     0 -2.862631129E+02 -1.324703756E+02  7.870726548E+01  3.250996830E+02  0.000000000E+00  0.00000E+00  9.000E+00
     -14     1     5     5     0     0 -2.991494376E+02 -2.306687638E+02  6.862578332E+01  3.839374464E+02  1.074736373E-05  0.00000E+00  9.000E+00
       5     1     4     4   507     0 -5.383398303E+01 -4.660408059E+01  8.168858465E+00  7.182848185E+01  4.750000000E+00  0.00000E+00  9.000E+00
      -5     1     3     3     0   501 -1.061985978E+01 -1.655672280E+01 -2.130136323E+01  2.938055594E+01  4.750000000E+00  0.00000E+00  9.000E+00
       1     1     1     2   502     0  8.090403885E+02  1.032096702E+03 -1.449959507E+03  1.955032614E+03  0.000000000E+00  0.00000E+00  9.000E+00
#rwgt            2          86   9.4931192799152589E-002           1     2133469           0           1           0
<weights>
0.13550E+02
</weights>
</event>
<event>
     15  10001  1.35503E+01  2.52515E+01 -1.00000E+00  1.41718E-01
      21    -1     0     0   507   512  0.000000000E+00  0.000000000E+00  1.249803126E+02  1.249803126E+02  0.000000000E+00  0.00000E+00  9.000E+00
      21    -1     0     0   501   502  0.000000000E+00  0.000000000E+00 -8.218713003E+02  8.218713003E+02  0.000000000E+00  0.00000E+00  9.000E+00
      -6     2     1     2     0   502 -3.642779039E+01  2.733472365E+01 -6.790967987E+02  7.020211253E+02  1.720088002E+02  0.00000E+00  9.000E+00
       6     2     1     2   507     0  2.357095254E+01 -5.601316680E+00 -6.869312846E+01  1.880119932E+02  1.733285872E+02  0.00000E+00  9.000E+00
     -24     2     3     3     0     0 -4.013381494E+01  4.562032126E+01 -2.484135969E+02  2.685177013E+02  8.185660606E+01  0.00000E+00  9.000E+00
      24     2     4     4     0     0  6.204093895E+01  3.499874141E+01 -7.316231224E+01  1.302194550E+02  8.081084401E+01  0.00000E+00  9.000E+00
     -11     1     6     6     0     0  2.634119092E+01  4.724982796E+01 -7.495061313E+01  9.243375460E+01  0.000000000E+00  0.00000E+00  9.000E+00
      12     1     6     6     0     0  3.569974803E+01 -1.225108655E+01  1.788300892E+00  3.778570035E+01  1.081541020E-06  0.00000E+00  9.000E+00
      13     1     5     5     0     0  4.625584244E+00  4.246966144E+01 -1.906308661E+02  1.953591443E+02  0.000000000E+00  0.00000E+00  9.000E+00
     -14     1     5     5     0     0 -4.475939918E+01  3.150659825E+00 -5.778273085E+01  7.315855696E+01  9.536743164E-07  0.00000E+00  9.000E+00
       5     1     4     4   513     0 -2.812141820E+01 -2.551124769E+01 -2.175716089E+00  3.832667688E+01  4.750000000E+00  0.00000E+00  9.000E+00
      -5     1     3     3     0   511 -1.982502577E+01 -1.059130937E+01 -2.631477970E+02  2.641486950E+02  4.750000000E+00  0.00000E+00  9.000E+00
      21     1     3     3   511   502  2.353105032E+01 -7.694288235E+00 -1.675354048E+02  1.693547291E+02  3.303624740E-06  0.00000E+00  9.000E+00
      21     1     1     2   501   512  1.285683785E+01 -2.173340697E+01  5.089893949E+01  5.681849434E+01  2.236564522E-06  0.00000E+00  9.000E+00
      21     1     4     4   507   513 -1.034856821E+01 -1.508881041E+01  6.644899865E+00  1.946586134E+01  6.019774043E-07  0.00000E+00  9.000E+00
#rwgt            1          17   72.952832525492852                1     2140339           0      110110           0
<weights>
0.13152E+02
</weights>
</event>
<event>
     15  10001  1.35503E+01  2.79426E+01 -1.00000E+00  1.89028E-01
      21    -1     0     0   512   501  0.000000000E+00  0.000000000E+00  1.041317306E+02  1.041317306E+02  0.000000000E+00  0.00000E+00  9.000E+00
      21    -1     0     0   501   502  0.000000000E+00  0.000000000E+00 -8.632956992E+02  8.632956992E+02  0.000000000E+00  0.00000E+00  9.000E+00
      -6     2     1     2     0   502 -6.056499828E+01 -4.192697367E+01 -5.220148394E+02  5.540421621E+02  1.704031535E+02  0.00000E+00  9.000E+00
       6     2     1     2   507     0  8.658238756E+01  5.211930117E+01 -2.910076803E+02  3.527096415E+02  1.717722033E+02  0.00000E+00  9.000E+00
     -24     2     3     3     0     0 -1.091534512E+02 -2.495865641E+01 -3.541585176E+02  3.773075414E+02  6.629717015E+01  0.00000E+00  9.000E+00
      24     2     4     4     0     0  6.511202935E+01  1.009488811E+02 -1.975122081E+02  2.447053866E+02  8.024587792E+01  0.00000E+00  9.000E+00
     -11     1     6     6     0     0  2.790729798E+01  1.551583673E+01 -1.178919632E+02  1.221395655E+02  0.000000000E+00  0.00000E+00  9.000E+00
      12     1     6     6     0     0  3.720473137E+01  8.543304434E+01 -7.962024486E+01  1.225658211E+02  3.814697266E-06  0.00000E+00  9.000E+00
      13     1     5     5     0     0 -3.137398906E+01  2.198215304E+01 -1.271605717E+02  1.328056973E+02  0.000000000E+00  0.00000E+00  9.000E+00
     -14     1     5     5     0     0 -7.777946214E+01 -4.694080945E+01 -2.269979459E+02  2.445018441E+02  0.000000000E+00  0.00000E+00  9.000E+00
       5     1     4     4   514     0  2.180893520E+01 -4.836996900E+01 -9.101448453E+01  1.054584394E+02  4.750000000E+00  0.00000E+00  9.000E+00
      -5     1     3     3     0   511  3.685271301E+01 -2.030686169E+01 -1.413198527E+02  1.475274698E+02  4.750000000E+00  0.00000E+00  9.000E+00
      21     1     1     2   512   507 -2.601738928E+01 -1.019232750E+01  5.385855107E+01  6.067562615E+01  1.168007728E-06  0.00000E+00  9.000E+00
      21     1     3     3   511   502  1.173573992E+01  3.338544439E+00 -2.653646908E+01  2.920715087E+01  0.000000000E+00  0.00000E+00  9.000E+00
      21     1     4     4   507   514 -3.385769919E-01 -4.596108961E-01 -2.480987689E+00  2.545815482E+00  4.214684851E-08  0.00000E+00  9.000E+00
#rwgt            1          17   117.20803045763526                1     2145387           0       11110           0
<weights>
0.16180E+02
</weights>
</event>
<event>
     13  10001  1.35503E+01  1.37880E+02 -1.00000E+00  1.17862E-01
      21    -1     0     0   502   511  0.000000000E+00  0.000000000E+00  1.236312967E+02  1.236312967E+02  0.000000000E+00  0.00000E+00  9.000E+00
      21    -1     0     0   507   502  0.000000000E+00  0.000000000E+00 -7.401225896E+02  7.401225896E+02  0.000000000E+00  0.00000E+00  9.000E+00
      -6     2     1     2     0   501 -4.477975105E+00  8.591732139E+00 -1.766707047E+02  2.475494506E+02  1.731309403E+02  0.00000E+00  9.000E+00
       6     2     1     2   507     0 -1.792975212E+01 -1.446384066E+02 -4.201078882E+02  4.769227269E+02  1.724033207E+02  0.00000E+00  9.000E+00
     -24     2     3     3     0     0  1.375202165E+01  4.052953181E+01 -1.880105462E+02  2.087743254E+02  8.004369062E+01  0.00000E+00  9.000E+00
      24     2     4     4     0     0  3.150937811E+01 -1.328579866E+02 -3.806039223E+02  4.123771483E+02  8.094122089E+01  0.00000E+00  9.000E+00
     -11     1     6     6     0     0  5.162732200E+01 -5.303421021E+01 -2.161472053E+02  2.284679895E+02  0.000000000E+00  0.00000E+00  9.000E+00
      12     1     6     6     0     0 -2.011794389E+01 -7.982377642E+01 -1.644567169E+02  1.839091588E+02  1.907348633E-06  0.00000E+00  9.000E+00
      13     1     5     5     0     0 -3.075335411E+01  2.834603013E+01 -1.153711705E+02  1.227182675E+02  0.000000000E+00  0.00000E+00  9.000E+00
     -14     1     5     5     0     0  4.450537576E+01  1.218350168E+01 -7.263937579E+01  8.605605789E+01  2.336015456E-06  0.00000E+00  9.000E+00
       5     1     4     4   507     0 -4.943913022E+01 -1.178041993E+01 -3.950396596E+01  6.454557861E+01  4.750000000E+00  0.00000E+00  9.000E+00
      -5     1     3     3     0   501 -1.822999675E+01 -3.193779967E+01  1.133984154E+01  3.877512522E+01  4.750000000E+00  0.00000E+00  9.000E+00
      21     1     1     2   501   511  2.240772722E+01  1.360466744E+02 -1.971269989E+01  1.392817088E+02  1.092571186E-06  0.00000E+00  9.000E+00
#rwgt            2         113   3.5522722755059188                1     2161743           0           1           0
<weights>
0.13550E+02
</weights>
</event>
<event>
     14  10001  1.35503E+01  8.54828E+01 -1.00000E+00  7.47881E-01
      21    -1     0     0   507   501  0.000000000E+00  0.000000000E+00  1.083061464E+02  1.083061464E+02  0.000000000E+00  0.00000E+00  9.000E+00
      21    -1     0     0   512   502  0.000000000E+00  0.000000000E+00 -7.268066277E+02  7.268066277E+02  0.000000000E+00  0.00000E+00  9.000E+00
      -6     2     1     2     0   502 -7.953528321E+01 -1.003132131E+02 -2.369647241E+02  3.203543694E+02  1.734532778E+02  0.00000E+00  9.000E+00
       6     2     1     2   507     0  1.443527177E+02  4.458157567E+01 -1.649982286E+02  2.819584551E+02  1.716127354E+02  0.00000E+00  9.000E+00
     -24     2     3     3     0     0 -1.200090561E+02 -5.398175124E+01 -1.664272961E+02  2.266376586E+02  7.968927390E+01  0.00000E+00  9.000E+00
      24     2     4     4     0     0  8.171878055E+01  1.688258972E+01 -3.034661974E+01  1.194507180E+02  7.990354037E+01  0.00000E+00  9.000E+00
     -11     1     6     6     0     0 -3.667849791E+00 -1.751233538E+01 -1.997160941E+01  2.681417900E+01  0.000000000E+00  0.00000E+00  9.000E+00
      12     1     6     6     0     0  8.538663034E+01  3.439492511E+01 -1.037501033E+01  9.263653897E+01  7.444617746E-07  0.00000E+00  9.000E+00
      13     1     5     5     0     0 -8.180477402E+01 -7.242755697E+01 -1.358839364E+02  1.743623131E+02  0.000000000E+00  0.00000E+00  9.000E+00
     -14     1     5     5     0     0 -3.820428212E+01  1.844580573E+01 -3.054335968E+01  5.227534545E+01  5.840038640E-07  0.00000E+00  9.000E+00
       5     1     4     4   513     0  4.951258678E+01  3.734857515E+01 -1.321132417E+02  1.460235715E+02  4.750000000E+00  0.00000E+00  9.000E+00
      -5     1     3     3     0   502  4.047377293E+01 -4.633146182E+01 -7.053742798E+01  9.371671087E+01  4.750000000E+00  0.00000E+00  9.000E+00
      21     1     1     2   512   501 -6.481743446E+01  5.573163739E+01 -2.165375286E+02  2.327999496E+02  0.000000000E+00  0.00000E+00  9.000E+00
      21     1     4     4   507   513  1.312135034E+01 -9.649589203E+00 -2.538367197E+00  1.648416557E+01  1.931411236E-07  0.00000E+00  9.000E+00
#rwgt            1          17   32.941070981996376                1     2164102           0         110           0
<weights>
0.14295E+02
</weights>
</event>
<event>
     15  10001  1.35503E+01  2.69844E+01 -1.00000E+00  3.55769E-01
      21    -1     0     0   512   501  0.000000000E+00  0.000000000E+00  1.297963502E+02  1.297963502E+02  0.000000000E+00  0.00000E+00  9.000E+00
      21    -1     0     0   507   502  0.000000000E+00  0.000000000E+00 -5.331873903E+02  5.331873903E+02  0.000000000E+00  0.00000E+00  9.000E+00
      -6     2     1     2     0   501 -2.359180026E+01  5.660362736E+01  2.400582963E+01  1.846809092E+02  1.725404726E+02  0.00000E+00  9.000E+00
       6     2     1     2   507     0  3.811503553E+01 -3.386081425E+01 -3.224569048E+02  3.699489843E+02  1.740243801E+02  0.00000E+00  9.000E+00
     -24     2     3     3     0     0  3.161163871E+01 -2.198369143E+01  1.352608068E+01  8.737431762E+01  7.725760889E+01  0.00000E+00  9.000E+00
      24     2     4     4     0     0 -3.439760103E+01 -2.505263856E+01 -1.532579901E+02  1.781360120E+02  8.020971007E+01  0.00000E+00  9.000E+00
     -11     1     6     6     0     0 -1.881529815E+00 -1.532892166E+01 -1.413160727E+02  1.421574774E+02  0.000000000E+00  0.00000E+00  9.000E+00
      12     1     6     6     0     0 -3.251607121E+01 -9.723716904E+00 -1.194191740E+01  3.597853455E+01  2.185142372E-06  0.00000E+00  9.000E+00
      13     1     5     5     0     0  1.095857937E+01  2.855029137E+01 -1.914975657E+00  3.064109545E+01  0.000000000E+00  0.00000E+00  9.000E+00
     -14     1     5     5     0     0  2.065305935E+01 -5.053398279E+01  1.544105633E+01  5.673322217E+01  1.768159506E-06  0.00000E+00  9.000E+00
       5     1     4     4   511     0  5.058179950E+01  1.779483440E+01 -1.221357882E+02  1.334724235E+02  4.750000000E+00  0.00000E+00  9.000E+00
      -5     1     3     3     0   513 -5.327608435E+01  7.658324561E+01  8.313213353E+00  9.378169697E+01  4.750000000E+00  0.00000E+00  9.000E+00
      21     1     4     4   507   511  2.193083705E+01 -2.660301010E+01 -4.706312647E+01  5.834054879E+01  0.000000000E+00  0.00000E+00  9.000E+00
      21     1     1     2   512   502 -1.452323527E+01 -2.274281310E+01 -1.049399649E+02  1.083538470E+02  1.348699152E-06  0.00000E+00  9.000E+00
      21     1     3     3   513   501 -1.927354622E+00  2.004073177E+00  2.166535598E+00  3.524894556E+00  9.884312124E-08  0.00000E+00  9.000E+00
#rwgt            1          17   16.617545316993354                1     2170366           0      100111           0
<weights>
0.19544E+02
</weights>
</event>
<event>
     15  10001  1.35503E+01  4.38208E+01 -1.00000E+00  3.42865E-01
      21    -1     0     0   512   501  0.000000000E+00  0.000000000E+00  2.295618550E+02  2.295618550E+02  0.000000000E+00  0.00000E+00  9.000E+00
      21    -1     0     0   507   502  0.000000000E+00  0.000000000E+00 -4.187840110E+02  4.187840110E+02  0.000000000E+00  0.00000E+00  9.000E+00
      -6     2     1     2     0   501 -2.254245982E+02  1.490584222E+01  7.191749046E+00  2.840038965E+02  1.719536518E+02  0.00000E+00  9.000E+00
       6     2     1     2   507     0  1.817803752E+02 -1.097557635E+01 -1.930794823E+02  3.203944601E+02  1.794668647E+02  0.00000E+00  9.000E+00
     -24     2     3     3     0     0 -4.674436727E+01 -5.886218930E+00  3.983621044E+01  1.010729118E+02  8.005701965E+01  0.00000E+00  9.000E+00
      24     2     4     4     0     0  4.267239333E+01 -5.068621408E+01 -4.828669887E+01  1.151435481E+02  8.084804216E+01  0.00000E+00  9.000E+00
     -11     1     6     6     0     0  2.649554316E+01  1.733175228E+01 -2.820378192E+01  4.240114101E+01  0.000000000E+00  0.00000E+00  9.000E+00
      12     1     6     6     0     0  1.617685017E+01 -6.801796637E+01 -2.008291695E+01  7.274240705E+01  3.015782986E-06  0.00000E+00  9.000E+00
      13     1     5     5     0     0 -2.362296016E+01  3.172081728E+01  4.092511817E+01  5.691326553E+01  0.000000000E+00  0.00000E+00  9.000E+00
     -14     1     5     5     0     0 -2.312140711E+01 -3.760703621E+01 -1.088907730E+00  4.415964628E+01  8.256372915E-07  0.00000E+00  9.000E+00
       5     1     4     4   511     0  1.159029191E+02  3.815052464E+01 -1.244153099E+02  1.743292317E+02  4.750000000E+00  0.00000E+00  9.000E+00
      -5     1     3     3     0   514 -1.376830932E+02  1.473818587E+01 -2.547862169E+01  1.408743090E+02  4.750000000E+00  0.00000E+00  9.000E+00
      21     1     1     2   512   502  4.364422306E+01 -3.930265870E+00 -3.334422749E+00  4.394750928E+01  8.215933294E-07  0.00000E+00  9.000E+00
      21     1     4     4   507   511  2.320506277E+01  1.560113092E+00 -2.037747355E+01  3.092168041E+01  5.331201500E-07  0.00000E+00  9.000E+00
      21     1     3     3   514   501 -4.099713778E+01  6.053875284E+00 -7.165839704E+00  4.205667570E+01  6.251387883E-07  0.00000E+00  9.000E+00
#rwgt            1          17   18.711950855692258                1     2178953           0       11011           0
<weights>
0.25525E+02
</weights>
</event>
<event>
     15  10001  1.35503E+01  7.28083E+01 -1.00000E+00  2.15918E-01
      -3    -1     0     0     0   501  0.000000000E+00  0.000000000E+00  2.977100878E+02  2.977100878E+02  0.000000000E+00  0.00000E+00  9.000E+00
      21    -1     0     0   507   502  0.000000000E+00  0.000000000E+00 -2.099262598E+02  2.099262598E+02  0.000000000E+00  0.00000E+00  9.000E+00
      -6     2     1     2     0   501  3.966136361E+01  7.225589043E+01  2.919440424E+01  1.922207661E+02  1.711799411E+02  0.00000E+00  9.000E+00
       6     2     1     2   507     0 -6.726736819E+01 -1.396276592E+02  1.680736226E+01  2.314704364E+02  1.711002439E+02  0.00000E+00  9.000E+00
     -24     2     3     3     0     0  6.518708409E+01  2.538491887E+01 -1.147773514E+01  1.242715929E+02  1.020683122E+02  0.00000E+00  9.000E+00
      24     2     4     4     0     0 -3.763452620E+01 -1.416285921E+02 -3.456081017E+01  1.711900864E+02  8.146520995E+01  0.00000E+00  9.000E+00
     -11     1     6     6     0     0 -1.078100214E+01 -8.669384671E+01 -5.891580459E+01  1.053713675E+02  0.000000000E+00  0.00000E+00  9.000E+00
      12     1     6     6     0     0 -2.685352406E+01 -5.493474536E+01  2.435499442E+01  6.581871889E+01  1.348699152E-06  0.00000E+00  9.000E+00
      13     1     5     5     0     0 -1.462639427E+01  2.300384133E+01  2.453679893E+01  3.667645876E+01  0.000000000E+00  0.00000E+00  9.000E+00
     -14     1     5     5     0     0  7.981347837E+01  2.381077534E+00 -3.601453407E+01  8.759513413E+01  1.719260824E-06  0.00000E+00  9.000E+00
       5     1     4     4   511     0 -2.365100015E+01  5.298374909E+00  4.100027137E+01  4.786467734E+01  4.750000000E+00  0.00000E+00  9.000E+00
      -5     1     3     3     0   512 -1.425894572E+01  3.470798734E+01  2.722109633E+01  4.659949038E+01  4.750000000E+00  0.00000E+00  9.000E+00
      -3     1     1     2     0   502  2.760600458E+01  6.737176880E+01  4.178206151E+01  8.394514509E+01  0.000000000E+00  0.00000E+00  9.000E+00
      21     1     3     3   512   501 -1.126677477E+01  1.216298423E+01  1.345104305E+01  2.134968286E+01  6.951036328E-07  0.00000E+00  9.000E+00
      21     1     4     4   507   511 -5.981841843E+00 -3.297442067E+00  1.036790106E+01  1.241567269E+01  2.064765462E-07  0.00000E+00  9.000E+00
#rwgt            1          17   49.193606703112359                1     2185121           0       11110           0
<weights>
0.13623E+02
</weights>
</event>
<event>
     13  10001  1.35503E+01  5.82951E+02 -1.00000E+00  9.69944E-02
      21    -1     0     0   507   501  0.000000000E+00  0.000000000E+00  6.277348445E+02  6.277348445E+02  0.000000000E+00  0.00000E+00  9.000E+00
      21    -1     0     0   511   502  0.000000000E+00  0.000000000E+00 -1.022314543E+03  1.022314543E+03  0.000000000E+00  0.00000E+00  9.000E+00
      -6     2     1     2     0   502 -1.813896232E+02 -2.899675749E+02 -1.837569435E+01  3.834834701E+02  1.724485889E+02  0.00000E+00  9.000E+00
       6     2     1     2   507     0  1.795334836E+02 -2.929805741E+02  2.115210119E+02  4.387660114E+02  1.723501836E+02  0.00000E+00  9.000E+00
     -24     2     3     3     0     0 -8.893057914E+01 -6.231168046E+01  6.530785053E-01  1.369869432E+02  8.350809936E+01  0.00000E+00  9.000E+00
      24     2     4     4     0     0  1.454388049E+02 -2.438004320E+02  2.321212181E+02  3.752989768E+02  7.986216561E+01  0.00000E+00  9.000E+00
     -11     1     6     6     0     0  2.497344924E+01 -6.633322584E+00  6.880506079E+00  2.673977374E+01  0.000000000E+00  0.00000E+00  9.000E+00
      12     1     6     6     0     0  1.204653556E+02 -2.371671094E+02  2.252407120E+02  3.485592030E+02  6.031565972E-06  0.00000E+00  9.000E+00
      13     1     5     5     0     0 -2.581834635E+01 -2.351399332E+01 -3.949844961E+01  5.272212450E+01  0.000000000E+00  0.00000E+00  9.000E+00
     -14     1     5     5     0     0 -6.311223279E+01 -3.879768714E+01  4.015152811E+01  8.426481866E+01  1.430511475E-06  0.00000E+00  9.000E+00
       5     1     4     4   507     0  3.409467870E+01 -4.918014209E+01 -2.060020614E+01  6.346703463E+01  4.750000000E+00  0.00000E+00  9.000E+00
      -5     1     3     3     0   502 -9.245904410E+01 -2.276558944E+02 -1.902877285E+01  2.464965270E+02  4.750000000E+00  0.00000E+00  9.000E+00
      21     1     1     2   511   501  1.856139669E+00  5.829481490E+02 -5.877250158E+02  8.277999056E+02  7.629394531E-06  0.00000E+00  9.000E+00
#rwgt            2         113  0.28706339304692946                1     2211184           0           1           0
<weights>
0.13550E+02
</weights>
</event>
<event>
     14  10001  1.35503E+01  3.19173E+01 -1.00000E+00  2.19512E-01
      21    -1     0     0   502   512  0.000000000E+00  0.000000000E+00  2.675784441E+02  2.675784441E+02  0.000000000E+00  0.00000E+00  9.000E+00
      21    -1     0     0   507   502  0.000000000E+00  0.000000000E+00 -1.327708338E+03  1.327708338E+03  0.000000000E+00  0.00000E+00  9.000E+00
      -6     2     1     2     0   501  2.486069328E+01  1.454180689E+02  1.400144425E+02  2.677393520E+02  1.741144671E+02  0.00000E+00  9.000E+00
       6     2     1     2   507     0  5.857549997E+00 -1.540844709E+02 -1.469877712E+02  2.739073266E+02  1.721728307E+02  0.00000E+00  9.000E+00
     -24     2     3     3     0     0  6.560738760E+01  4.419740370E+01  4.222904456E+01  1.204722951E+02  8.045210931E+01  0.00000E+00  9.000E+00
      24     2     4     4     0     0 -4.086062325E+01 -1.151123911E+02 -4.129775631E+01  1.518649058E+02  8.023086588E+01  0.00000E+00  9.000E+00
     -11     1     6     6     0     0  4.807773296E+00 -9.442549963E+01 -1.666579342E+01  9.600540784E+01  0.000000000E+00  0.00000E+00  9.000E+00
      12     1     6     6     0     0 -4.566839654E+01 -2.068689143E+01 -2.463196289E+01  5.585949799E+01  1.469710828E-06  0.00000E+00  9.000E+00
      13     1     5     5     0     0  2.628382382E+01  1.221731265E+01  6.010319251E+01  6.672702506E+01  0.000000000E+00  0.00000E+00  9.000E+00
     -14     1     5     5     0     0  3.932356378E+01  3.198009105E+01 -1.787414795E+01  5.374527009E+01  8.596304120E-07  0.00000E+00  9.000E+00
       5     1     4     4   507     0  4.671817324E+01 -3.897207986E+01 -1.056900149E+02  1.220424208E+02  4.750000000E+00  0.00000E+00  9.000E+00
      -5     1     3     3     0   511 -3.475908777E+01  8.631090924E+01  7.621601992E+01  1.203711403E+02  4.750000000E+00  0.00000E+00  9.000E+00
      21     1     1     2   501   512 -3.071824328E+01  8.666402028E+00 -1.053156565E+03  1.053640104E+03  1.525878906E-05  0.00000E+00  9.000E+00
      21     1     3     3   511   501 -5.987606541E+00  1.490975595E+01  2.156937804E+01  2.689591649E+01  1.118282261E-06  0.00000E+00  9.000E+00
#rwgt            1          17   56.578521392891247                1     2212199           0         111           0
<weights>
0.13080E+02
</weights>
</event>
<event>
     14  10001 -1.35503E+01  5.98033E+01 -1.00000E+00  7.50092E-01
      21    -1     0     0   507   501  0.000000000E+00  0.000000000E+00  3.857427191E+02  3.857427191E+02  0.000000000E+00  0.00000E+00  9.000E+00
       2    -1     0     0   501     0  0.000000000E+00  0.000000000E+00 -1.255502910E+03  1.255502910E+03  0.000000000E+00  0.00000E+00  9.000E+00
      -6     2     1     2     0   502  2.032507001E+02 -2.862151714E+01 -7.722789570E+02  8.169283558E+02  1.697854905E+02  0.00000E+00  9.000E+00
       6     2     1     2   507     0 -1.488365907E+02  3.811515026E+00  3.248328550E+02  3.977898753E+02  1.747957174E+02  0.00000E+00  9.000E+00
     -24     2     3     3     0     0  2.839308464E+01  1.313587397E+01 -2.462284688E+02  2.609872222E+02  8.066692550E+01  0.00000E+00  9.000E+00
      24     2     4     4     0     0 -1.365597775E+02  2.689276643E+01  3.302149286E+02  3.671578746E+02  7.994505689E+01  0.00000E+00  9.000E+00
     -11     1     6     6     0     0 -4.006730230E+01  2.145080587E+01  1.994025864E+02  2.045163007E+02  0.000000000E+00  0.00000E+00  9.000E+00
      12     1     6     6     0     0 -9.649247516E+01  5.441960561E+00  1.308123422E+02  1.626415739E+02  6.877043296E-06  0.00000E+00  9.000E+00
      13     1     5     5     0     0 -1.132582452E+01 -2.229589667E+01 -1.394905857E+02  1.417145187E+02  0.000000000E+00  0.00000E+00  9.000E+00
     -14     1     5     5     0     0  3.971890917E+01  3.543177063E+01 -1.067378831E+02  1.192727035E+02  1.348699152E-06  0.00000E+00  9.000E+00
       5     1     4     4   512     0 -3.947456847E-01 -2.125304065E+00 -3.865038506E+00  6.494133058E+00  4.750000000E+00  0.00000E+00  9.000E+00
      -5     1     3     3     0   502  1.748576154E+02 -4.175739111E+01 -5.260504882E+02  5.559411336E+02  4.750000000E+00  0.00000E+00  9.000E+00
       2     1     1     2   502     0 -5.441410941E+01  2.481000212E+01 -4.223140891E+02  4.265273982E+02  0.000000000E+00  0.00000E+00  9.000E+00
      21     1     4     4   507   512 -1.188206753E+01 -2.095594734E+01 -1.517035095E+00  2.413786762E+01  7.845429528E-07  0.00000E+00  9.000E+00
#rwgt            1          17  -305.12693424299465                1     2225130           0         110           0
<weights>
-.10764E+02
</weights>
</event>
<event>
     15  10001  1.35503E+01  6.25819E+00 -1.00000E+00  3.46858E-01
      21    -1     0     0   507   501  0.000000000E+00  0.000000000E+00  3.514601598E+02  3.514601598E+02  0.000000000E+00  0.00000E+00  9.000E+00
      21    -1     0     0   501   513  0.000000000E+00  0.000000000E+00 -1.631422507E+02  1.631422507E+02  0.000000000E+00  0.00000E+00  9.000E+00
      -6     2     1     2     0   502 -6.895843851E+01  1.016533460E+02  1.166558592E+02  2.454060718E+02  1.775581077E+02  0.00000E+00  9.000E+00
       6     2     1     2   507     0  6.404801444E+01 -9.777356904E+01  1.212339697E+02  2.192309491E+02  1.403663588E+02  0.00000E+00  9.000E+00
     -24     2     3     3     0     0  3.136720621E+00  2.610031992E+01 -3.806957262E+00  8.500402494E+01  8.074729479E+01  0.00000E+00  9.000E+00
      24     2     4     4     0     0  1.034971313E+01 -8.463353406E+01  6.432751829E+01  1.352466041E+02  8.296784105E+01  0.00000E+00  9.000E+00
     -11     1     6     6     0     0 -2.046594930E+01 -5.300032634E+01 -4.875937007E-01  5.681661218E+01  0.000000000E+00  0.00000E+00  9.000E+00
      12     1     6     6     0     0  3.081566244E+01 -3.163320773E+01  6.481511199E+01  7.842999187E+01  1.348699152E-06  0.00000E+00  9.000E+00
      13     1     5     5     0     0  7.713141277E+00 -2.215267464E+01  2.016253392E+01  3.093155858E+01  0.000000000E+00  0.00000E+00  9.000E+00
     -14     1     5     5     0     0 -4.576420656E+00  4.825299457E+01 -2.396949118E+01  5.407246636E+01  1.815741803E-06  0.00000E+00  9.000E+00
       5     1     4     4   511     0  4.289171507E+01 -1.587360559E+01  3.011094260E+01  5.496273228E+01  4.750000000E+00  0.00000E+00  9.000E+00
      -5     1     3     3     0   512 -7.246826461E+01  7.464960656E+01  1.206740873E+02  1.594020420E+02  4.750000000E+00  0.00000E+00  9.000E+00
      21     1     4     4   507   511  1.080658623E+01  2.733570619E+00  2.679550877E+01  2.902161271E+01  6.743495762E-07  0.00000E+00  9.000E+00
      21     1     1     2   502   513  4.910424071E+00 -3.879776960E+00 -4.957191973E+01  4.996538962E+01  9.536743164E-07  0.00000E+00  9.000E+00
      21     1     3     3   512   502  3.731054773E-01  9.034195199E-01 -2.112708206E-01  1.000004943E+00  2.356080458E-08  0.00000E+00  9.000E+00
#rwgt            1          17   21.221662916788610                1     2230930           0      100111           0
<weights>
0.16993E+02
</weights>
</event>
<event>
     14  10001 -1.35503E+01  1.55109E+01 -1.00000E+00  1.89555E-01
      21    -1     0     0   512   501  0.000000000E+00  0.000000000E+00  1.609379504E+02  1.609379504E+02  0.000000000E+00  0.00000E+00  9.000E+00
      21    -1     0     0   501   502  0.000000000E+00  0.000000000E+00 -2.438751068E+02  2.438751068E+02  0.000000000E+00  0.00000E+00  9.000E+00
      -6     2     1     2     0   502  4.030295050E+01 -2.558128447E+01 -7.554344693E+01  1.826205401E+02  1.592630508E+02  0.00000E+00  9.000E+00
       6     2     1     2   507     0 -2.506153252E+01  2.270254849E+01 -4.690767620E+01  1.797432355E+02  1.701875862E+02  0.00000E+00  9.000E+00
     -24     2     3     3     0     0  3.620254106E+01 -1.835983934E+01  1.448067240E+01  9.139927286E+01  8.060043130E+01  0.00000E+00  9.000E+00
      24     2     4     4     0     0 -3.630989045E+01 -4.255554568E+01 -5.523281975E+01  1.128327361E+02  8.093935602E+01  0.00000E+00  9.000E+00
     -11     1     6     6     0     0 -7.545818948E+00 -1.389005404E+01  2.110339080E+01  2.636714031E+01  0.000000000E+00  0.00000E+00  9.000E+00
      12     1     6     6     0     0 -2.876407151E+01 -2.866549164E+01 -7.633621055E+01  8.646559582E+01  0.000000000E+00  0.00000E+00  9.000E+00
      13     1     5     5     0     0 -5.888765010E+00  2.465734009E+01  1.803280348E+01  3.111019086E+01  0.000000000E+00  0.00000E+00  9.000E+00
     -14     1     5     5     0     0  4.209130607E+01 -4.301717943E+01 -3.552131082E+00  6.028908200E+01  6.405766386E-07  0.00000E+00  9.000E+00
       5     1     4     4   507     0  1.124835794E+01  6.525809417E+01  8.325143550E+00  6.691049937E+01  4.750000000E+00  0.00000E+00  9.000E+00
      -5     1     3     3     0   511  1.333972010E+00 -8.600992163E+00 -4.445461810E+01  4.554703193E+01  4.750000000E+00  0.00000E+00  9.000E+00
      21     1     1     2   512   507 -1.524141798E+01  2.878735989E+00  3.951396669E+01  4.244928158E+01  9.536743164E-07  0.00000E+00  9.000E+00
      21     1     3     3   511   502  2.766437434E+00  1.379547028E+00 -4.556950123E+01  4.567423528E+01  0.000000000E+00  0.00000E+00  9.000E+00
#rwgt            1          17  -239.96092823351043                1     2241285           0         111           0
<weights>
-.13515E+02
</weights>
</event>
<event>
     13  10001  1.35503E+01  7.41670E+01 -1.00000E+00  1.29961E-01
      21    -1     0     0   507   511  0.000000000E+00  0.000000000E+00  6.628345662E+02  6.628345662E+02  0.000000000E+00  0.00000E+00  9.000E+00
      21    -1     0     0   501   502  0.000000000E+00  0.000000000E+00 -1.320859862E+02  1.320859862E+02  0.000000000E+00  0.00000E+00  9.000E+00
      -6     2     1     2     0   502 -1.051037687E+02  1.818956736E+01  4.137546489E+01  2.072747623E+02  1.728387557E+02  0.00000E+00  9.000E+00
       6     2     1     2   507     0  1.515574629E+02 -7.600652173E+01  3.087511131E+02  3.923894111E+02  1.729032799E+02  0.00000E+00  9.000E+00
     -24     2     3     3     0     0 -2.752706886E+01  4.478582620E+01 -2.714772775E+01  1.003004861E+02  8.099184311E+01  0.00000E+00  9.000E+00
      24     2     4     4     0     0  1.704801073E+02 -9.823031913E+01  2.740204547E+02  3.467742297E+02  8.032741878E+01  0.00000E+00  9.000E+00
     -11     1     6     6     0     0  5.830542528E+01 -5.754561107E+01  5.931950825E+01  1.011425926E+02  0.000000000E+00  0.00000E+00  9.000E+00
      12     1     6     6     0     0  1.121746820E+02 -4.068470806E+01  2.147009465E+02  2.456316372E+02  4.672030912E-06  0.00000E+00  9.000E+00
      13     1     5     5     0     0  2.314396243E+01  3.029782534E+01  5.176059217E+00  3.847587304E+01  0.000000000E+00  0.00000E+00  9.000E+00
     -14     1     5     5     0     0 -5.067103129E+01  1.448800086E+01 -3.232378697E+01  6.182461310E+01  1.507891493E-06  0.00000E+00  9.000E+00
       5     1     4     4   507     0 -1.892264439E+01  2.222379740E+01  3.473065837E+01  4.561518138E+01  4.750000000E+00  0.00000E+00  9.000E+00
      -5     1     3     3     0   502 -7.757669980E+01 -2.659625884E+01  6.852319265E+01  1.069742762E+02  4.750000000E+00  0.00000E+00  9.000E+00
      21     1     1     2   501   511 -4.645369426E+01  5.781695437E+01  1.806220020E+02  1.952563790E+02  1.907348633E-06  0.00000E+00  9.000E+00
#rwgt            2         113   1.2765364213785546                1     2267128           0           1           0
<weights>
0.13550E+02
</weights>
</event>
<event>
     15  10001  1.35503E+01  1.21320E+01 -1.00000E+00  1.80696E-01
      21    -1     0     0   513   501  0.000000000E+00  0.000000000E+00  6.120905106E+02  6.120905106E+02  0.000000000E+00  0.00000E+00  9.000E+00
      21    -1     0     0   501   502  0.000000000E+00  0.000000000E+00 -1.769760392E+03  1.769760392E+03  0.000000000E+00  0.00000E+00  9.000E+00
      -6     2     1     2     0   502  6.255615471E+02  3.762046616E+02 -1.308085133E+03  1.507655889E+03  1.705355325E+02  0.00000E+00  9.000E+00
       6     2     1     2   507     0 -6.158779983E+02 -3.835132058E+02  2.400096463E+02  7.837829486E+02  1.741349831E+02  0.00000E+00  9.000E+00
     -24     2     3     3     0     0  2.884968088E+02  1.392180933E+02 -6.878947393E+02  7.629958521E+02  7.969574493E+01  0.00000E+00  9.000E+00
      24     2     4     4     0     0 -5.200141403E+02 -2.794368903E+02  1.454385070E+02  6.132110413E+02  7.984823120E+01  0.00000E+00  9.000E+00
     -11     1     6     6     0     0 -9.020824036E+01 -2.521602480E+01  4.471939829E+01  1.037940226E+02  0.000000000E+00  0.00000E+00  9.000E+00
      12     1     6     6     0     0 -4.298058999E+02 -2.542208655E+02  1.007191088E+02  5.094170187E+02  1.878520546E-05  0.00000E+00  9.000E+00
      13     1     5     5     0     0  1.594046007E+02  5.446792458E+01 -2.789797700E+02  3.258930708E+02  0.000000000E+00  0.00000E+00  9.000E+00
     -14     1     5     5     0     0  1.290922082E+02  8.475016869E+01 -4.089149694E+02  4.371027814E+02  1.078959322E-05  0.00000E+00  9.000E+00
       5     1     4     4   511     0 -9.089272164E+01 -1.014258793E+02  9.162500043E+01  1.642144910E+02  4.750000000E+00  0.00000E+00  9.000E+00
      -5     1     3     3     0   512  1.054649368E+02  7.092414909E+01 -1.904004548E+02  2.289715780E+02  4.750000000E+00  0.00000E+00  9.000E+00
      21     1     3     3   512   502  2.315998014E+02  1.660624193E+02 -4.297899391E+02  5.156884591E+02  1.206313194E-05  0.00000E+00  9.000E+00
      21     1     1     2   513   507 -9.683548831E+00  7.308544195E+00 -8.959439410E+01  9.041206440E+01  1.348699152E-06  0.00000E+00  9.000E+00
      21     1     4     4   507   511 -4.971136366E+00 -2.650436212E+00  2.946138819E+00  6.357416364E+00  9.424321831E-08  0.00000E+00  9.000E+00
#rwgt            1          17   6.6027819056889507                1     2267615           0      110110           0
<weights>
0.12845E+02
</weights>
</event>
<event>
     14  10001 -1.35503E+01  9.85225E+01 -1.00000E+00  7.46176E-01
      21    -1     0     0   511   501  0.000000000E+00  0.000000000E+00  5.307023068E+02  5.307023068E+02  0.000000000E+00  0.00000E+00  9.000E+00
      21    -1     0     0   501   502  0.000000000E+00  0.000000000E+00 -5.113364233E+02  5.113364233E+02  0.000000000E+00  0.00000E+00  9.000E+00
      -6     2     1     2     0   502  2.174198428E+01 -1.465242877E+01  1.031192131E+02  2.027446347E+02  1.725815959E+02  0.00000E+00  9.000E+00
       6     2     1     2   507     0  5.978168318E+01 -4.067002108E+01  3.485609218E+02  3.958955233E+02  1.732358188E+02  0.00000E+00  9.000E+00
     -24     2     3     3     0     0  5.949688629E+01 -4.235176340E+01  2.542564503E+01  1.119066538E+02  8.088933421E+01  0.00000E+00  9.000E+00
      24     2     4     4     0     0  5.286385691E+01 -3.403516691E+01  3.479325181E+02  3.631226328E+02  8.275282096E+01  0.00000E+00  9.000E+00
     -11     1     6     6     0     0 -1.247631402E+01 -8.781206905E+00  1.867972026E+02  1.874192170E+02  0.000000000E+00  0.00000E+00  9.000E+00
      12     1     6     6     0     0  6.534017093E+01 -2.525396000E+01  1.611353155E+02  1.757034158E+02  4.264961200E-06  0.00000E+00  9.000E+00
      13     1     5     5     0     0  2.137504549E+00 -5.058541236E+01  1.665378937E+01  5.329917044E+01  0.000000000E+00  0.00000E+00  9.000E+00
     -14     1     5     5     0     0  5.735938174E+01  8.233648963E+00  8.771855655E+00  5.860748331E+01  4.460403188E-07  0.00000E+00  9.000E+00
       5     1     4     4   512     0  3.493367154E+00 -8.289534062E+00 -1.419817947E+01  1.746627577E+01  4.750000000E+00  0.00000E+00  9.000E+00
      -5     1     3     3     0   502 -3.775490201E+01  2.769933462E+01  7.769356808E+01  9.083798096E+01  4.750000000E+00  0.00000E+00  9.000E+00
      21     1     1     2   511   507 -8.152366746E+01  5.532244985E+01 -4.323142514E+02  4.433985721E+02  5.394796609E-06  0.00000E+00  9.000E+00
      21     1     4     4   507   512  3.424459117E+00  1.654679888E+00  1.482658318E+01  1.530661473E+01  2.920019320E-07  0.00000E+00  9.000E+00
#rwgt            1          17  -9.0444986395699694                1     2275203           0         110           0
<weights>
-.10366E+02
</weights>
</event>
<event>
     15  10001  1.35503E+01  6.51868E+01 -1.00000E+00  2.02938E-01
      21    -1     0     0   507   512  0.000000000E+00  0.000000000E+00  7.595937385E+02  7.595937385E+02  0.000000000E+00  0.00000E+00  9.000E+00
      21    -1     0     0   501   502  0.000000000E+00  0.000000000E+00 -1.843497485E+02  1.843497485E+02  0.000000000E+00  0.00000E+00  9.000E+00
      -6     2     1     2     0   502 -1.229280747E+02 -4.854795164E+01 -8.154167145E+01  2.317102640E+02  1.719662383E+02  0.00000E+00  9.000E+00
       6     2     1     2   507     0  8.659408254E+01 -5.573758699E+00  5.798218325E+02  6.113731741E+02  1.733614680E+02  0.00000E+00  9.000E+00
     -24     2     3     3     0     0 -1.535704751E+02 -3.239408330E+01 -7.206020314E+01  1.905844095E+02  8.060072455E+01  0.00000E+00  9.000E+00
      24     2     4     4     0     0  2.740038325E+01  3.245417352E+01  1.449891191E+02  1.708077626E+02  7.968307662E+01  0.00000E+00  9.000E+00
     -11     1     6     6     0     0  3.406788418E+01  5.324430515E+01  7.826916498E+01  1.006063564E+02  0.000000000E+00  0.00000E+00  9.000E+00
      12     1     6     6     0     0 -6.667500934E+00 -2.079013163E+01  6.671995416E+01  7.020140615E+01  1.907348633E-06  0.00000E+00  9.000E+00
      13     1     5     5     0     0 -3.223646344E+01 -2.506428485E+01  1.227402284E+01  4.263870996E+01  0.000000000E+00  0.00000E+00  9.000E+00
     -14     1     5     5     0     0 -1.213340117E+02 -7.329798450E+00 -8.433422598E+01  1.479456995E+02  7.688768147E-06  0.00000E+00  9.000E+00
       5     1     4     4   513     0  4.401098345E+01 -2.777803195E+01  3.378004456E+02  3.418190885E+02  4.750000000E+00  0.00000E+00  9.000E+00
      -5     1     3     3     0   511  2.727615346E+01 -1.226874258E+01  6.502334505E-02  3.028328450E+01  4.750000000E+00  0.00000E+00  9.000E+00
      21     1     1     2   501   512  3.633399215E+01  5.412171034E+01  7.696382885E+01  1.008600489E+02  1.651812370E-06  0.00000E+00  9.000E+00
      21     1     3     3   511   502  3.366246992E+00 -3.885125757E+00 -9.546491660E+00  1.084256999E+01  5.462855929E-07  0.00000E+00  9.000E+00
      21     1     4     4   507   513  1.518271584E+01 -1.024990027E+01  9.703226779E+01  9.874632301E+01  1.907348633E-06  0.00000E+00  9.000E+00
#rwgt            1          17   6.1801312543171987                1     2289390           0       11110           0
<weights>
0.10989E+02
</weights>
</event>
<event>
     15  10001  1.35503E+01  8.84996E+00 -1.00000E+00  2.62015E-01
      21    -1     0     0   511   501  0.000000000E+00  0.000000000E+00  3.063084163E+02  3.063084163E+02  0.000000000E+00  0.00000E+00  9.000E+00
      21    -1     0     0   507   502  0.000000000E+00  0.000000000E+00 -5.493428834E+02  5.493428834E+02  0.000000000E+00  0.00000E+00  9.000E+00
      -6     2     1     2     0   501  8.107297741E+01 -5.840825398E+01  1.861285396E+00  1.999514766E+02  1.731842280E+02  0.00000E+00  9.000E+00
       6     2     1     2   507     0 -7.860861678E+01  4.990832478E+01  1.596576606E+02  2.510496212E+02  1.698975815E+02  0.00000E+00  9.000E+00
     -24     2     3     3     0     0  3.000309338E+00 -2.557456462E+01  5.332658896E+01  1.000752646E+02  8.067386983E+01  0.00000E+00  9.000E+00
      24     2     4     4     0     0 -9.505132777E+01  8.698532317E+01  1.279869589E+02  1.984653721E+02  8.004149490E+01  0.00000E+00  9.000E+00
     -11     1     6     6     0     0 -4.636284906E+01  2.273752457E+01  5.635332311E+00  5.194483388E+01  0.000000000E+00  0.00000E+00  9.000E+00
      12     1     6     6     0     0 -4.868847871E+01  6.424779859E+01  1.223516266E+02  1.465205382E+02  2.336015456E-06  0.00000E+00  9.000E+00
      13     1     5     5     0     0 -1.147466908E+01  3.373339382E+00 -1.807901540E+01  2.167713651E+01  0.000000000E+00  0.00000E+00  9.000E+00
     -14     1     5     5     0     0  1.447497842E+01 -2.894790400E+01  7.140560436E+01  7.839812805E+01  2.523185073E-06  0.00000E+00  9.000E+00
       5     1     4     4   514     0  1.735849424E+01 -3.686648404E+01  3.114470895E+01  5.150738164E+01  4.750000000E+00  0.00000E+00  9.000E+00
      -5     1     3     3     0   512  6.750265802E+01 -2.676346943E+01 -4.810414535E+01  8.723223851E+01  4.750000000E+00  0.00000E+00  9.000E+00
      21     1     1     2   511   502 -2.464360629E+00  8.499929201E+00 -4.045534131E+02  4.046502019E+02  0.000000000E+00  0.00000E+00  9.000E+00
      21     1     3     3   512   501  1.057001005E+01 -6.070219925E+00 -3.361158209E+00  1.264397354E+01  0.000000000E+00  0.00000E+00  9.000E+00
      21     1     4     4   507   514 -9.157832505E-01 -2.105143499E-01  5.259927424E-01  1.076867503E+00  1.825012075E-08  0.00000E+00  9.000E+00
#rwgt            1          17   34.030387956806194                1     2296032           0       11110           0
<weights>
0.12640E+02
</weights>
</event>
<event>
     13  10001  1.35503E+01  1.18468E+02 -1.00000E+00  1.20606E-01
      21    -1     0     0   512   501  0.000000000E+00  0.000000000E+00  8.517088072E+02  8.517088072E+02  0.000000000E+00  0.00000E+00  9.000E+00
      21    -1     0     0   501   502  0.000000000E+00  0.000000000E+00 -1.840933279E+02  1.840933279E+02  0.000000000E+00  0.00000E+00  9.000E+00
      -6     2     1     2     0   502  3.190458329E+00  6.847117183E+01 -9.066963499E+01  2.062807129E+02  1.721402609E+02  0.00000E+00  9.000E+00
       6     2     1     2   507     0 -1.074755167E+02 -1.226389457E+01  5.853463576E+02  6.198968888E+02  1.730329580E+02  0.00000E+00  9.000E+00
     -24     2     3     3     0     0 -1.326141587E+00  9.555929703E+01 -1.652828114E+01  1.270742166E+02  8.210563049E+01  0.00000E+00  9.000E+00
      24     2     4     4     0     0 -2.165392467E-01 -1.293305917E+01  3.758195171E+02  3.844632561E+02  8.002733852E+01  0.00000E+00  9.000E+00
     -11     1     6     6     0     0 -1.660307060E+01 -4.168194510E+01  1.620017802E+02  1.681000395E+02  0.000000000E+00  0.00000E+00  9.000E+00
      12     1     6     6     0     0  1.638653135E+01  2.874888592E+01  2.138177369E+02  2.163632166E+02  2.697398305E-06  0.00000E+00  9.000E+00
      13     1     5     5     0     0 -7.306005508E+00 -5.878570074E-01 -2.902312182E+01  2.993434303E+01  0.000000000E+00  0.00000E+00  9.000E+00
     -14     1     5     5     0     0  5.979863921E+00  9.614715404E+01  1.249484068E+01  9.713987362E+01  2.949074954E-06  0.00000E+00  9.000E+00
       5     1     4     4   507     0 -1.072589775E+02  6.691646081E-01  2.095268405E+02  2.354336327E+02  4.750000000E+00  0.00000E+00  9.000E+00
      -5     1     3     3     0   502  4.516599916E+00 -2.708812520E+01 -7.414135385E+01  7.920649628E+01  4.750000000E+00  0.00000E+00  9.000E+00
      21     1     1     2   512   507  1.042850584E+02 -5.620727726E+01  1.729387567E+02  2.096245334E+02  3.814697266E-06  0.00000E+00  9.000E+00
#rwgt            2         113   1.7607313108622960                1     2319958           0           1           0
<weights>
0.13550E+02
</weights>
</event>
<event>
     15  10001  1.35503E+01  3.29647E+00 -1.00000E+00  3.54128E-01
      21    -1     0     0   502   511  0.000000000E+00  0.000000000E+00  8.769600992E+01  8.769600992E+01  0.000000000E+00  0.00000E+00  9.000E+00
      21    -1     0     0   507   502  0.000000000E+00  0.000000000E+00 -7.449855350E+02  7.449855350E+02  0.000000000E+00  0.00000E+00  9.000E+00
      -6     2     1     2     0   501 -9.679184196E+01  9.600016077E+01 -7.548290801E+01  2.068131509E+02  1.359754333E+02  0.00000E+00  9.000E+00
       6     2     1     2   507     0  1.000875533E+02 -9.592953146E+01 -5.822427926E+02  6.225431946E+02  1.712698641E+02  0.00000E+00  9.000E+00
     -24     2     3     3     0     0 -7.280997314E+01  9.211444107E+01 -1.528354964E+01  1.414563003E+02  7.739467402E+01  0.00000E+00  9.000E+00
      24     2     4     4     0     0  8.929256630E+01 -6.969197689E+01 -5.724525006E+02  5.895142462E+02  8.363639718E+01  0.00000E+00  9.000E+00
     -11     1     6     6     0     0 -9.670820771E+00 -1.806287409E+01 -3.468417862E+01  4.028379875E+01  0.000000000E+00  0.00000E+00  9.000E+00
      12     1     6     6     0     0  9.896338707E+01 -5.162910281E+01 -5.377683220E+02  5.492304474E+02  1.321449896E-05  0.00000E+00  9.000E+00
      13     1     5     5     0     0 -6.972120069E+01  3.393640492E+01  9.543702720E+00  7.812686904E+01  0.000000000E+00  0.00000E+00  9.000E+00
     -14     1     5     5     0     0 -3.088772452E+00  5.817803615E+01 -2.482725236E+01  6.332943127E+01  1.936921693E-06  0.00000E+00  9.000E+00
       5     1     4     4   512     0  1.147028000E+01 -2.590067197E+01 -6.230924148E+00  2.939045844E+01  4.750000000E+00  0.00000E+00  9.000E+00
      -5     1     3     3     0   513 -2.197703345E+01  5.149126250E+00 -5.512484693E+01  5.975629465E+01  4.750000000E+00  0.00000E+00  9.000E+00
      21     1     1     2   501   511 -3.295711344E+00 -7.062931476E-02  4.361754828E-01  3.325199364E+00  1.442798729E-07  0.00000E+00  9.000E+00
      21     1     3     3   513   501 -2.004835369E+00 -1.263406542E+00 -5.074511437E+00  5.600555978E+00  8.429369702E-08  0.00000E+00  9.000E+00
      21     1     4     4   507   512 -6.752929964E-01 -3.368825967E-01 -3.559367826E+00  3.638490049E+00  7.300048300E-08  0.00000E+00  9.000E+00
#rwgt            1          17   16.101213480477146                1     2324285           0       11110           0
<weights>
0.21980E+02
</weights>
</event>
<event>
     15  10001  1.35503E+01  3.31751E+01 -1.00000E+00  3.25342E-01
      21    -1     0     0   507   501  0.000000000E+00  0.000000000E+00  2.302993356E+02  2.302993356E+02  0.000000000E+00  0.00000E+00  9.000E+00
      21    -1     0     0   511   502  0.000000000E+00  0.000000000E+00 -5.535879321E+02  5.535879321E+02  0.000000000E+00  0.00000E+00  9.000E+00
      -6     2     1     2     0   502 -1.890813237E+02 -4.903782483E+01 -2.788861642E+02  3.822678746E+02  1.737664527E+02  0.00000E+00  9.000E+00
       6     2     1     2   507     0  2.051416898E+02  7.806628116E+01  6.557536918E+01  2.867468401E+02  1.724707631E+02  0.00000E+00  9.000E+00
     -24     2     3     3     0     0 -1.784126785E+02 -7.148244605E+01 -2.839414888E+02  3.520355859E+02  7.978383739E+01  0.00000E+00  9.000E+00
      24     2     4     4     0     0  1.714912103E+02  6.335733322E+01  1.640381883E+01  2.020099884E+02  8.435379815E+01  0.00000E+00  9.000E+00
     -11     1     6     6     0     0  9.197665316E+01  7.505484928E+00  4.220105765E+01  1.014739686E+02  0.000000000E+00  0.00000E+00  9.000E+00
      12     1     6     6     0     0  7.951455711E+01  5.585184829E+01 -2.579723882E+01  1.005360198E+02  4.932441918E-06  0.00000E+00  9.000E+00
      13     1     5     5     0     0 -9.941445445E+00 -1.897960633E+01 -5.061033812E+00  2.201526418E+01  0.000000000E+00  0.00000E+00  9.000E+00
     -14     1     5     5     0     0 -1.684712330E+02 -5.250283972E+01 -2.788804550E+02  3.300203217E+02  1.009274029E-05  0.00000E+00  9.000E+00
       5     1     4     4   512     0  4.849863034E+01  6.001252751E+00  4.590645865E+01  6.721679571E+01  4.750000000E+00  0.00000E+00  9.000E+00
      -5     1     3     3     0   513 -9.946569282E+00  2.229352335E+01  8.826612398E+00  2.638952463E+01  4.750000000E+00  0.00000E+00  9.000E+00
      21     1     4     4   507   512 -1.484815084E+01  8.707695191E+00  3.265091703E+00  1.752005602E+01  1.007124498E-06  0.00000E+00  9.000E+00
      21     1     1     2   511   501 -1.606036605E+01 -2.902845634E+01 -1.099778014E+02  1.148725530E+02  0.000000000E+00  0.00000E+00  9.000E+00
      21     1     3     3   513   502 -7.220759721E-01  1.510978745E-01 -3.771287746E+00  3.842764050E+00  5.960464478E-08  0.00000E+00  9.000E+00
#rwgt            1          17   302.90510518880308                1     2334037           0      100111           0
<weights>
0.13308E+02
</weights>
</event>
<event>
     15  10001  1.35503E+01  2.10707E+02 -1.00000E+00  4.60844E-01
      21    -1     0     0   511   501  0.000000000E+00  0.000000000E+00  1.566824708E+03  1.566824708E+03  0.000000000E+00  0.00000E+00  9.000E+00
      21    -1     0     0   507   502  0.000000000E+00  0.000000000E+00 -7.015851468E+02  7.015851468E+02  0.000000000E+00  0.00000E+00  9.000E+00
      -6     2     1     2     0   501  2.680617556E+01  8.323750460E+00  7.552547089E+02  7.754540444E+02  1.735841114E+02  0.00000E+00  9.000E+00
       6     2     1     2   507     0 -1.114999419E+02  1.846125329E+02  7.604428434E+02  8.092211827E+02  1.733539156E+02  0.00000E+00  9.000E+00
     -24     2     3     3     0     0 -6.509725652E+00 -5.644230517E+01  5.143379702E+02  5.236054046E+02  7.994349082E+01  0.00000E+00  9.000E+00
      24     2     4     4     0     0 -5.148081177E+01  4.094251066E+01  4.437574251E+02  4.560381206E+02  8.199726790E+01  0.00000E+00  9.000E+00
     -11     1     6     6     0     0 -7.389896188E+01  3.245414648E+01  3.586239437E+02  3.675941528E+02  0.000000000E+00  0.00000E+00  9.000E+00
      12     1     6     6     0     0  2.241815011E+01  8.488364177E+00  8.513348146E+01  8.844396784E+01  0.000000000E+00  0.00000E+00  9.000E+00
      13     1     5     5     0     0  3.081911706E+01 -3.001172776E+01  1.393627941E+02  1.458509861E+02  0.000000000E+00  0.00000E+00  9.000E+00
     -14     1     5     5     0     0 -3.732884271E+01 -2.643057741E+01  3.749751762E+02  3.777544185E+02  0.000000000E+00  0.00000E+00  9.000E+00
       5     1     4     4   512     0 -3.730114678E+01  9.942090988E+01  2.048664034E+02  2.308001270E+02  4.750000000E+00  0.00000E+00  9.000E+00
      -5     1     3     3     0   514  3.118911571E+01  6.350415849E+01  2.336193680E+02  2.441436272E+02  4.750000000E+00  0.00000E+00  9.000E+00
      21     1     1     2   511   502  8.469376634E+01 -1.929362833E+02 -6.504579909E+02  6.837346279E+02  1.705984480E-05  0.00000E+00  9.000E+00
      21     1     4     4   507   512 -2.271798336E+01  4.424911231E+01  1.118190149E+02  1.223829351E+02  1.348699152E-06  0.00000E+00  9.000E+00
      21     1     3     3   514   501  2.126785505E+00  1.261897139E+00  7.297370675E+00  7.705012638E+00  1.192092896E-07  0.00000E+00  9.000E+00
#rwgt            1          17   19.760829619691165                1     2339209           0       11011           0
<weights>
0.14562E+02
</weights>
</event>
<event>
     15  10001  1.35503E+01  5.91766E+01 -1.00000E+00  4.93914E-01
      -1    -1     0     0     0   501  0.000000000E+00  0.000000000E+00  8.777690008E+02  8.777690008E+02  0.000000000E+00  0.00000E+00  9.000E+00
      21    -1     0     0   507   502  0.000000000E+00  0.000000000E+00 -9.775436567E+01  9.775436567E+01  0.000000000E+00  0.00000E+00  9.000E+00
      -6     2     1     2     0   501  9.306624316E-01  1.591543743E+02  5.261383530E+02  5.733459348E+02  1.630123107E+02  0.00000E+00  9.000E+00
       6     2     1     2   507     0 -5.846395640E+01 -1.730030977E+02  2.167184867E+02  3.323020511E+02  1.735213089E+02  0.00000E+00  9.000E+00
     -24     2     3     3     0     0  3.957687017E+01  1.045198928E+02  4.540543755E+02  4.748120499E+02  8.240370261E+01  0.00000E+00  9.000E+00
      24     2     4     4     0     0 -1.132115566E+01 -6.930819752E+01  1.814086906E+02  2.128457429E+02  8.638519795E+01  0.00000E+00  9.000E+00
     -11     1     6     6     0     0  8.556383209E+00 -8.092931190E+01  1.667542217E+02  1.855525146E+02  0.000000000E+00  0.00000E+00  9.000E+00
      12     1     6     6     0     0 -1.987753887E+01  1.162111438E+01  1.465446890E+01  2.729322827E+01  1.079486029E-06  0.00000E+00  9.000E+00
      13     1     5     5     0     0 -2.398841741E+01  3.712061426E+01  1.112104812E+02  1.196710295E+02  0.000000000E+00  0.00000E+00  9.000E+00
     -14     1     5     5     0     0  6.356528758E+01  6.739927851E+01  3.428438943E+02  3.551410204E+02  7.629394531E-06  0.00000E+00  9.000E+00
       5     1     4     4   511     0 -3.725997337E+01 -7.779033608E+01  2.736123790E+01  9.061369567E+01  4.750000000E+00  0.00000E+00  9.000E+00
      -5     1     3     3     0   512 -3.334046423E+01  4.878109733E+01  6.373331151E+01  8.703837951E+01  4.750000000E+00  0.00000E+00  9.000E+00
      -1     1     1     2     0   502  5.753329397E+01  1.384872342E+01  3.715779544E+01  6.987538062E+01  0.000000000E+00  0.00000E+00  9.000E+00
      21     1     4     4   507   511 -9.882827363E+00 -2.590456413E+01  7.948558184E+00  2.884261252E+01  6.419616708E-07  0.00000E+00  9.000E+00
      21     1     3     3   512   501 -5.305743508E+00  5.853384211E+00  8.350665972E+00  1.149550534E+01  1.192092896E-07  0.00000E+00  9.000E+00
#rwgt            1          17   9.5297224042851276                1     2347869           0       11011           0
<weights>
0.18271E+02
</weights>
</event>
<event>
     15  10001  1.35503E+01  9.65021E+01 -1.00000E+00  3.16539E-01
      21    -1     0     0   511   501  0.000000000E+00  0.000000000E+00  9.885823462E+02  9.885823462E+02  0.000000000E+00  0.00000E+00  9.000E+00
      21    -1     0     0   501   502  0.000000000E+00  0.000000000E+00 -1.254489316E+02  1.254489316E+02  0.000000000E+00  0.00000E+00  9.000E+00
      -6     2     1     2     0   502 -7.661361078E+01  1.092371053E+02  5.664950065E+01  2.248781210E+02  1.719261843E+02  0.00000E+00  9.000E+00
       6     2     1     2   507     0  4.962128443E+01 -1.658688497E+01  1.794988698E+02  2.547850503E+02  1.730843176E+02  0.00000E+00  9.000E+00
     -24     2     3     3     0     0 -5.095002195E+01  1.248340156E+02 -2.311527825E+00  1.578490206E+02  8.204592578E+01  0.00000E+00  9.000E+00
      24     2     4     4     0     0  6.469875413E+01 -3.134727713E+01  4.570929342E+01  1.187115877E+02  8.267116169E+01  0.00000E+00  9.000E+00
     -11     1     6     6     0     0 -1.234516707E+01 -2.202262170E+01  3.056146005E+01  3.964091140E+01  0.000000000E+00  0.00000E+00  9.000E+00
      12     1     6     6     0     0  7.704392119E+01 -9.324655433E+00  1.514783337E+01  7.907067628E+01  2.242909398E-06  0.00000E+00  9.000E+00
      13     1     5     5     0     0 -1.285544723E+00  3.303028759E+01  3.392014579E+01  4.736273656E+01  0.000000000E+00  0.00000E+00  9.000E+00
     -14     1     5     5     0     0 -4.966447722E+01  9.180372804E+01 -3.623167362E+01  1.104862840E+02  4.696301366E-06  0.00000E+00  9.000E+00
       5     1     4     4   512     0 -5.701176490E+00  4.623250110E+00  8.234662261E+01  8.280945967E+01  4.750000000E+00  0.00000E+00  9.000E+00
      -5     1     3     3     0   513 -2.414571716E+01 -1.675325223E+01  5.323583193E+01  6.099429005E+01  4.750000000E+00  0.00000E+00  9.000E+00
      21     1     1     2   511   507  2.699232635E+01 -9.265022031E+01  6.269850441E+02  6.343681065E+02  0.000000000E+00  0.00000E+00  9.000E+00
      21     1     4     4   507   512 -9.376293206E+00  1.013714205E+01  5.144295375E+01  5.326400298E+01  9.536743164E-07  0.00000E+00  9.000E+00
      21     1     3     3   513   502 -1.517871671E+00  1.156341877E+00  5.725196548E+00  6.034810391E+00  8.429369702E-08  0.00000E+00  9.000E+00
#rwgt            1          17   84.609822729558928                1     2356030           0       11011           0
<weights>
0.12635E+02
</weights>
</event>
<event>
     15  10001  1.35503E+01  3.83185E+01 -1.00000E+00  6.43261E-01
      21    -1     0     0   512   501  0.000000000E+00  0.000000000E+00  3.819757559E+02  3.819757559E+02  0.000000000E+00  0.00000E+00  9.000E+00
      21    -1     0     0   501   502  0.000000000E+00  0.000000000E+00 -5.920014461E+02  5.920014461E+02  0.000000000E+00  0.00000E+00  9.000E+00
      -6     2     1     2     0   502 -2.401425856E+01 -2.281168022E+02 -3.715438489E+02  4.695434599E+02  1.726622976E+02  0.00000E+00  9.000E+00
       6     2     1     2   507     0 -1.291457682E+01  2.383428392E+02 -4.188622292E+01  2.974514888E+02  1.724785123E+02  0.00000E+00  9.000E+00
     -24     2     3     3     0     0 -4.433568879E+01 -2.431116461E+02 -3.435914281E+02  4.307972264E+02  8.038815240E+01  0.00000E+00  9.000E+00
      24     2     4     4     0     0  3.036205124E+01  6.460754995E+01 -4.875910627E+01  1.179417081E+02  8.022971027E+01  0.00000E+00  9.000E+00
     -11     1     6     6     0     0 -2.298451089E+01  1.207699234E+01 -3.202101502E+01  4.122483339E+01  0.000000000E+00  0.00000E+00  9.000E+00
      12     1     6     6     0     0  5.334656212E+01  5.253055762E+01 -1.673809125E+01  7.671687476E+01  2.236564522E-06  0.00000E+00  9.000E+00
      13     1     5     5     0     0 -1.959935922E+01 -8.936393977E+01 -6.705973262E+01  1.134330479E+02  0.000000000E+00  0.00000E+00  9.000E+00
     -14     1     5     5     0     0 -2.473632956E+01 -1.537477063E+02 -2.765316955E+02  3.173641785E+02  3.814697266E-06  0.00000E+00  9.000E+00
       5     1     4     4   511     0 -4.253273188E+01  1.728109060E+02  7.456350393E+00  1.781875477E+02  4.750000000E+00  0.00000E+00  9.000E+00
      -5     1     3     3     0   514  2.006249172E+01  1.556859142E+01 -2.802068874E+01  3.811307007E+01  4.750000000E+00  0.00000E+00  9.000E+00
      21     1     1     2   512   507  3.692883539E+01 -1.022603702E+01  2.034043817E+02  2.069822533E+02  4.672030912E-06  0.00000E+00  9.000E+00
      21     1     4     4   507   511 -7.438961755E-01  9.243832910E-01 -5.834670419E-01  1.322232876E+00  3.942476677E-08  0.00000E+00  9.000E+00
      21     1     3     3   514   502  2.589385004E-01 -5.737475749E-01  6.826795718E-02  6.331634391E-01  3.280847325E-08  0.00000E+00  9.000E+00
#rwgt            1          17   22.114014152570743                1     2364287           0       11011           0
<weights>
0.13980E+02
</weights>
</event>
<event>
     15  10001 -1.35503E+01  8.39902E+00 -1.00000E+00  4.11603E-01
      21    -1     0     0   507   501  0.000000000E+00  0.000000000E+00  5.776140628E+02  5.776140628E+02  0.000000000E+00  0.00000E+00  9.000E+00
      21    -1     0     0   512   502  0.000000000E+00  0.000000000E+00 -1.733556436E+02  1.733556436E+02  0.000000000E+00  0.00000E+00  9.000E+00
      -6     2     1     2     0   502 -1.318683561E+02 -6.818330030E+01 -5.344930512E+01  2.333042708E+02  1.718599103E+02  0.00000E+00  9.000E+00
       6     2     1     2   507     0  1.301000593E+02  7.639406482E+01  4.506827520E+02  5.067158345E+02  1.757382014E+02  0.00000E+00  9.000E+00
     -24     2     3     3     0     0 -1.584237860E+02 -7.541022921E+01 -2.800342158E+01  1.933950475E+02  7.637181503E+01  0.00000E+00  9.000E+00
      24     2     4     4     0     0  5.280723137E+01  8.792129159E+01  3.409193903E+02  3.656638764E+02  8.345826898E+01  0.00000E+00  9.000E+00
     -11     1     6     6     0     0  4.601444345E+00 -1.075029684E+01  1.025455125E+02  1.032100979E+02  0.000000000E+00  0.00000E+00  9.000E+00
      12     1     6     6     0     0  4.820578702E+01  9.867158843E+01  2.383738778E+02  2.624537785E+02  5.394796609E-06  0.00000E+00  9.000E+00
      13     1     5     5     0     0 -2.728330053E+01 -3.099384099E+01 -3.589477119E+01  5.471225882E+01  0.000000000E+00  0.00000E+00  9.000E+00
     -14     1     5     5     0     0 -1.311404855E+02 -4.441638822E+01  7.891349603E+00  1.386827887E+02  4.228990501E-06  0.00000E+00  9.000E+00
       5     1     4     4   511     0  7.905229345E+01 -1.118991108E+01  8.684601367E+01  1.180646933E+02  4.750000000E+00  0.00000E+00  9.000E+00
      -5     1     3     3     0   513  2.723315134E+01  7.456769532E+00 -2.624195210E+01  3.883877564E+01  4.750000000E+00  0.00000E+00  9.000E+00
      21     1     4     4   507   511 -1.759465525E+00 -3.373156852E-01  2.291734801E+01  2.298726475E+01  3.371747881E-07  0.00000E+00  9.000E+00
      21     1     1     2   512   501  1.768296758E+00 -8.210764518E+00  7.024972429E+00  1.094960114E+01  8.429369702E-08  0.00000E+00  9.000E+00
      21     1     3     3   513   502 -6.777213855E-01 -2.298406317E-01  7.960685604E-01  1.070447638E+00  0.000000000E+00  0.00000E+00  9.000E+00
#rwgt            1          17  -20.667025072109055                1     2382199           0      100111           0
<weights>
-.14368E+02
</weights>
</event>
<event>
     15  10001  1.35503E+01  2.45610E+00 -1.00000E+00  2.63329E-01
      21    -1     0     0   507   511  0.000000000E+00  0.000000000E+00  9.728483246E+01  9.728483246E+01  0.000000000E+00  0.00000E+00  9.000E+00
      21    -1     0     0   501   502  0.000000000E+00  0.000000000E+00 -8.995231912E+02  8.995231912E+02  0.000000000E+00  0.00000E+00  9.000E+00
      -6     2     1     2     0   502 -1.921851838E+01 -3.689014646E+01 -7.930596279E+02  8.127940185E+02  1.730904644E+02  0.00000E+00  9.000E+00
       6     2     1     2   507     0  1.857391501E+01  3.452014865E+01 -1.584087200E+01  1.769135455E+02  1.717871892E+02  0.00000E+00  9.000E+00
     -24     2     3     3     0     0 -4.693797658E+01 -7.764803704E+00 -2.204597209E+02  2.387355142E+02  7.828595881E+01  0.00000E+00  9.000E+00
      24     2     4     4     0     0  2.704455158E+01  8.694389615E+01 -1.230222096E+01  1.224567816E+02  8.095473961E+01  0.00000E+00  9.000E+00
     -11     1     6     6     0     0  5.769479288E+00  7.004643469E+00 -3.542103539E+01  3.656503342E+01  0.000000000E+00  0.00000E+00  9.000E+00
      12     1     6     6     0     0  2.127507229E+01  7.993925268E+01  2.311881443E+01  8.589174815E+01  4.586072936E-06  0.00000E+00  9.000E+00
      13     1     5     5     0     0 -3.333369666E+01  3.347958218E+01 -1.317628291E+02  1.399766441E+02  0.000000000E+00  0.00000E+00  9.000E+00
     -14     1     5     5     0     0 -1.360427992E+01 -4.124438588E+01 -8.869689180E+01  9.875887005E+01  1.907348633E-06  0.00000E+00  9.000E+00
       5     1     4     4   514     0 -9.300917417E+00 -5.217643833E+01 -2.745439068E+00  5.328215196E+01  4.750000000E+00  0.00000E+00  9.000E+00
      -5     1     3     3     0   512  1.692626323E+01 -2.080824119E+01 -3.918901119E+02  3.928357208E+02  4.750000000E+00  0.00000E+00  9.000E+00
      21     1     3     3   512   502  1.079319497E+01 -8.317101561E+00 -1.807097951E+02  1.812227835E+02  1.907348633E-06  0.00000E+00  9.000E+00
      21     1     1     2   501   511  6.446033651E-01  2.369997805E+00  6.662141094E+00  7.100459637E+00  2.064765462E-07  0.00000E+00  9.000E+00
      21     1     4     4   507   514  8.302808535E-01 -2.473091663E-01 -7.932119679E-01  1.174611998E+00  3.942476677E-08  0.00000E+00  9.000E+00
#rwgt            1          17   47.578763521195896                1     2387419           0      110110           0
<weights>
0.12793E+02
</weights>
</event>
<event>
     13  10001  1.35503E+01  1.54328E+02 -1.00000E+00  1.15906E-01
      21    -1     0     0   502   501  0.000000000E+00  0.000000000E+00  1.786532856E+02  1.786532856E+02  0.000000000E+00  0.00000E+00  9.000E+00
       2    -1     0     0   507     0  0.000000000E+00  0.000000000E+00 -1.347245318E+03  1.347245318E+03  0.000000000E+00  0.00000E+00  9.000E+00
      -6     2     1     2     0   501 -8.784525100E+01  5.335909292E+01  1.109026251E+01  2.193107053E+02  1.934171932E+02  0.00000E+00  9.000E+00
       6     2     1     2   507     0  1.820334701E+02 -1.756122719E+02 -3.580847327E+02  4.706215026E+02  1.711258855E+02  0.00000E+00  9.000E+00
     -24     2     3     3     0     0 -9.461590383E+01  5.437757918E+01  7.557119448E+01  1.542935373E+02  7.865367024E+01  0.00000E+00  9.000E+00
      24     2     4     4     0     0  6.032789361E+01 -5.821117129E+01 -6.717693017E+01  1.341022939E+02  8.026636955E+01  0.00000E+00  9.000E+00
     -11     1     6     6     0     0  4.796073119E+01 -7.854544018E+01 -5.672975690E+01  1.081105140E+02  0.000000000E+00  0.00000E+00  9.000E+00
      12     1     6     6     0     0  1.236716242E+01  2.033426888E+01 -1.044717327E+01  2.599177998E+01  2.064765462E-07  0.00000E+00  9.000E+00
      13     1     5     5     0     0 -4.332635860E+01  1.322696928E+00 -6.605501688E+00  4.384695576E+01  0.000000000E+00  0.00000E+00  9.000E+00
     -14     1     5     5     0     0 -5.128954523E+01  5.305488225E+01  8.217669617E+01  1.104465815E+02  0.000000000E+00  0.00000E+00  9.000E+00
       5     1     4     4   507     0  1.217055765E+02 -1.174011006E+02 -2.909078025E+02  3.365192087E+02  4.750000000E+00  0.00000E+00  9.000E+00
      -5     1     3     3     0   501  6.770652832E+00 -1.018486262E+00 -6.448093197E+01  6.501716805E+01  4.750000000E+00  0.00000E+00  9.000E+00
       2     1     1     2   502     0 -9.418821909E+01  1.222531789E+02 -8.215975619E+02  8.359663953E+02  0.000000000E+00  0.00000E+00  9.000E+00
#rwgt            2          94  0.42650911041425527                1     2404892           0           1           0
<weights>
0.13550E+02
</weights>
</event>
<event>
     15  10001 -1.35503E+01  3.30605E+01 -1.00000E+00  1.55769E-01
      21    -1     0     0   507   501  0.000000000E+00  0.000000000E+00  7.308873203E+01  7.308873203E+01  0.000000000E+00  0.00000E+00  9.000E+00
       1    -1     0     0   501     0  0.000000000E+00  0.000000000E+00 -1.104945498E+03  1.104945498E+03  0.000000000E+00  0.00000E+00  9.000E+00
      -6     2     1     2     0   502  2.608568632E+01  1.342055399E+02 -2.170185734E+02  3.064500227E+02  1.676990318E+02  0.00000E+00  9.000E+00
       6     2     1     2   507     0 -4.864817439E+01 -1.100408482E+02 -3.718226110E+02  4.273367496E+02  1.728843843E+02  0.00000E+00  9.000E+00
     -24     2     3     3     0     0  2.409722404E+01  1.363195551E+02 -2.025509617E+02  2.573642121E+02  7.775441001E+01  0.00000E+00  9.000E+00
      24     2     4     4     0     0 -4.795034278E+01 -5.740587397E-01 -2.282947695E+02  2.466743050E+02  8.018819137E+01  0.00000E+00  9.000E+00
     -11     1     6     6     0     0 -4.776846844E+01  2.489426096E+01 -8.153908842E+01  9.772499039E+01  0.000000000E+00  0.00000E+00  9.000E+00
      12     1     6     6     0     0 -1.818743431E-01 -2.546831970E+01 -1.467556811E+02  1.489493146E+02  1.907348633E-06  0.00000E+00  9.000E+00
      13     1     5     5     0     0  5.761860563E+00  6.549937341E+01 -1.594044868E+02  1.724330518E+02  0.000000000E+00  0.00000E+00  9.000E+00
     -14     1     5     5     0     0  1.833536347E+01  7.082018171E+01 -4.314647493E+01  8.493116030E+01  2.900487199E-06  0.00000E+00  9.000E+00
       5     1     4     4   511     0 -1.464508563E+00 -1.055648639E+02 -1.371029788E+02  1.731065411E+02  4.750000000E+00  0.00000E+00  9.000E+00
      -5     1     3     3     0   512 -7.061556227E-01  3.553246074E-01  1.686590559E+01  1.753984557E+01  4.750000000E+00  0.00000E+00  9.000E+00
       1     1     1     2   502     0  2.256248806E+01 -2.416469165E+01 -4.430155814E+02  4.442474576E+02  0.000000000E+00  0.00000E+00  9.000E+00
      21     1     3     3   512   502  2.694617910E+00 -2.469339840E+00 -3.133351731E+01  3.154596507E+01  3.371747881E-07  0.00000E+00  9.000E+00
      21     1     4     4   507   511  7.666769557E-01 -3.901925629E+00 -6.424862731E+00  7.555903538E+00  1.192092896E-07  0.00000E+00  9.000E+00
#rwgt            1          17  -84.653137710601001                1     2404946           0       11110           0
<weights>
-.13831E+02
</weights>
</event>
<event>
     15  10001  1.35503E+01  1.89535E+01 -1.00000E+00  3.35417E-01
      21    -1     0     0   513   501  0.000000000E+00  0.000000000E+00  1.213281637E+03  1.213281637E+03  0.000000000E+00  0.00000E+00  9.000E+00
      21    -1     0     0   501   502  0.000000000E+00  0.000000000E+00 -5.208517954E+01  5.208517954E+01  0.000000000E+00  0.00000E+00  9.000E+00
      -6     2     1     2     0   502  8.835160119E+01 -5.729880483E+01  2.908707200E+02  3.542480435E+02  1.726173287E+02  0.00000E+00  9.000E+00
       6     2     1     2   507     0 -9.481277270E+01  3.948055282E+01  4.060622870E+02  4.464685946E+02  1.545944666E+02  0.00000E+00  9.000E+00
     -24     2     3     3     0     0  5.346294945E+01 -5.883814443E+01  2.971327279E+02  3.180555739E+02  8.093995259E+01  0.00000E+00  9.000E+00
      24     2     4     4     0     0 -8.447727321E+01  3.544609983E+01  3.483834072E+02  3.692820654E+02  8.127367160E+01  0.00000E+00  9.000E+00
     -11     1     6     6     0     0 -8.203794070E+01 -4.038427850E+00  2.537569970E+02  2.667192272E+02  0.000000000E+00  0.00000E+00  9.000E+00
      12     1     6     6     0     0 -2.439332517E+00  3.948452768E+01  9.462641017E+01  1.025628382E+02  0.000000000E+00  0.00000E+00  9.000E+00
      13     1     5     5     0     0  7.013127664E+01 -3.903393970E+01  1.659151506E+02  1.843092011E+02  0.000000000E+00  0.00000E+00  9.000E+00
     -14     1     5     5     0     0 -1.666832719E+01 -1.980420473E+01  1.312175773E+02  1.337463729E+02  1.907348633E-06  0.00000E+00  9.000E+00
       5     1     4     4   511     0 -4.295269549E+00  6.166382495E+00 -7.538028876E+00  1.165581370E+01  4.750000000E+00  0.00000E+00  9.000E+00
      -5     1     3     3     0   512  2.973422028E+01 -4.538652123E-01 -5.522203289E+00  3.061677773E+01  4.750000000E+00  0.00000E+00  9.000E+00
      21     1     4     4   507   511 -6.040229938E+00 -2.131929510E+00  6.521690864E+01  6.553071549E+01  0.000000000E+00  0.00000E+00  9.000E+00
      21     1     1     2   513   507  6.461171513E+00  1.781825201E+01  4.642634507E+02  4.646501786E+02  7.629394531E-06  0.00000E+00  9.000E+00
      21     1     3     3   512   502  5.154431455E+00  1.993204818E+00 -7.398046261E-01  5.575691881E+00  1.708767554E-07  0.00000E+00  9.000E+00
#rwgt            1          17   30.982805362260233                1     2417522           0      100111           0
<weights>
0.13830E+02
</weights>
</event>
<event>
     13  10001  1.35503E+01  6.80972E+01 -1.00000E+00  1.31830E-01
      21    -1     0     0   507   501  0.000000000E+00  0.000000000E+00  4.809368384E+02  4.809368384E+02  0.000000000E+00  0.00000E+00  9.000E+00
      21    -1     0     0   501   512  0.000000000E+00  0.000000000E+00 -1.143007571E+02  1.143007571E+02  0.000000000E+00  0.00000E+00  9.000E+00
      -6     2     1     2     0   502 -2.645381644E+01 -3.902467788E+01  6.886355063E+01  1.916899986E+02  1.725692240E+02  0.00000E+00  9.000E+00
       6     2     1     2   507     0  9.213759076E+01  2.105625455E+01  2.597796215E+02  3.255688588E+02  1.719794424E+02  0.00000E+00  9.000E+00
     -24     2     3     3     0     0  5.103659762E+01 -3.099417357E+01  4.687365796E+01  1.106013363E+02  8.043719719E+01  0.00000E+00  9.000E+00
      24     2     4     4     0     0  1.184437165E+02  2.842740756E+01  1.383652244E+02  2.010282450E+02  8.018970320E+01  0.00000E+00  9.000E+00
     -11     1     6     6     0     0  1.300448892E+01  1.469997066E+01 -7.076964905E+00  2.086358794E+01  0.000000000E+00  0.00000E+00  9.000E+00
      12     1     6     6     0     0  1.054392276E+02  1.372743690E+01  1.454421893E+02  1.801646571E+02  1.907348633E-06  0.00000E+00  9.000E+00
      13     1     5     5     0     0 -3.449688961E+00  2.135010734E+01  2.250685058E+01  3.121355091E+01  0.000000000E+00  0.00000E+00  9.000E+00
     -14     1     5     5     0     0  5.448628658E+01 -5.234428091E+01  2.436680738E+01  7.938778540E+01  1.215700987E-06  0.00000E+00  9.000E+00
       5     1     4     4   507     0 -2.630612576E+01 -7.371153003E+00  1.214143972E+02  1.245406138E+02  4.750000000E+00  0.00000E+00  9.000E+00
      -5     1     3     3     0   502 -7.749041406E+01 -8.030504314E+00  2.198989267E+01  8.108866228E+01  4.750000000E+00  0.00000E+00  9.000E+00
      21     1     1     2   502   512 -6.568377432E+01  1.796842333E+01  3.799290911E+01  7.797873806E+01  9.536743164E-07  0.00000E+00  9.000E+00
#rwgt            2         113   9.8300544219190673                1     2423046           0           1           0
<weights>
0.13550E+02
</weights>
</event>
<event>
     14  10001  1.35503E+01  2.06619E+00 -1.00000E+00  3.44222E-01
      -1    -1     0     0     0   512  0.000000000E+00  0.000000000E+00  1.005576335E+03  1.005576335E+03  0.000000000E+00  0.00000E+00  9.000E+00
       1    -1     0     0   501     0  0.000000000E+00  0.000000000E+00 -5.183503576E+01  5.183503576E+01  0.000000000E+00  0.00000E+00  9.000E+00
      -6     2     1     2     0   507 -2.686737418E+01 -3.718061163E+01  7.760669240E+02  7.969166454E+02  1.751913685E+02  0.00000E+00  9.000E+00
       6     2     1     2   507     0  2.482956711E+01  3.683932173E+01  1.816433187E+02  2.560201700E+02  1.748667756E+02  0.00000E+00  9.000E+00
     -24     2     3     3     0     0 -1.249404708E+01 -4.020881272E+01  7.745233452E+02  7.794308977E+02  7.650661542E+01  0.00000E+00  9.000E+00
      24     2     4     4     0     0 -4.122901532E+01  4.047491248E+01  1.558045556E+02  1.848361970E+02  8.094016273E+01  0.00000E+00  9.000E+00
     -11     1     6     6     0     0  5.990340575E+00 -2.072145120E+01  2.625207076E+01  3.397696189E+01  0.000000000E+00  0.00000E+00  9.000E+00
      12     1     6     6     0     0 -4.721935589E+01  6.119636368E+01  1.295524849E+02  1.508592351E+02  2.697398305E-06  0.00000E+00  9.000E+00
      13     1     5     5     0     0 -7.557960190E+00 -3.686565504E+01  1.426796884E+02  1.475591162E+02  0.000000000E+00  0.00000E+00  9.000E+00
     -14     1     5     5     0     0 -4.936086891E+00 -3.343157678E+00  6.318436568E+02  6.318717816E+02  0.000000000E+00  0.00000E+00  9.000E+00
       5     1     4     4   507     0  6.605858243E+01 -3.635590743E+00  2.583876304E+01  7.118397297E+01  4.750000000E+00  0.00000E+00  9.000E+00
      -5     1     3     3     0   511 -1.355627547E+01  9.444404315E-01 -5.708740045E-01  1.440669877E+01  4.750000000E+00  0.00000E+00  9.000E+00
      21     1     3     3   511   507 -8.170516295E-01  2.083760652E+00  2.114452757E+00  3.079048925E+00  4.214684851E-08  0.00000E+00  9.000E+00
      21     1     1     2   501   512  2.037807073E+00  3.412899004E-01 -3.968943233E+00  4.474555492E+00  1.632340424E-07  0.00000E+00  9.000E+00
#rwgt            1           2   6.1006677092432543E-002           1     2423437           0        1101           0
<weights>
0.18139E+02
</weights>
</event>
<event>
     15  10001  1.35503E+01  6.60920E+01 -1.00000E+00  1.64402E-01
      21    -1     0     0   502   501  0.000000000E+00  0.000000000E+00  6.860800743E+02  6.860800743E+02  0.000000000E+00  0.00000E+00  9.000E+00
      -2    -1     0     0     0   502  0.000000000E+00  0.000000000E+00 -2.734053693E+02  2.734053693E+02  0.000000000E+00  0.00000E+00  9.000E+00
      -6     2     1     2     0   501  1.375737884E+02  4.935763846E+01  3.571887915E+02  4.222552797E+02  1.713270694E+02  0.00000E+00  9.000E+00
       6     2     1     2   507     0 -7.164214661E+01 -5.395928579E+01  2.587265335E+02  3.235132807E+02  1.722707809E+02  0.00000E+00  9.000E+00
     -24     2     3     3     0     0  1.537504264E+02  7.209451681E+01  3.297758626E+02  3.796403405E+02  8.085700731E+01  0.00000E+00  9.000E+00
      24     2     4     4     0     0 -9.136795460E+01 -7.650386087E+01  1.410540728E+02  2.008616894E+02  7.904570160E+01  0.00000E+00  9.000E+00
     -11     1     6     6     0     0 -4.987943959E+01 -2.379352371E+01  1.173594448E+02  1.297201971E+02  0.000000000E+00  0.00000E+00  9.000E+00
      12     1     6     6     0     0 -4.148851501E+01 -5.271033717E+01  2.369462807E+01  7.114149226E+01  4.460403188E-06  0.00000E+00  9.000E+00
      13     1     5     5     0     0  4.634130291E+01  5.197434651E+01  1.890614696E+02  2.014772651E+02  0.000000000E+00  0.00000E+00  9.000E+00
     -14     1     5     5     0     0  1.074091235E+02  2.012017030E+01  1.407143930E+02  1.781630754E+02  4.264961200E-06  0.00000E+00  9.000E+00
       5     1     4     4   513     0  1.736318910E+01  2.523936880E+01  1.062138682E+02  1.106456251E+02  4.750000000E+00  0.00000E+00  9.000E+00
      -5     1     3     3     0   511 -5.949095330E+00 -3.892244639E+00  1.020479714E+00  8.610759689E+00  4.750000000E+00  0.00000E+00  9.000E+00
      -2     1     1     2     0   507 -6.593164180E+01  4.601647327E+00 -2.032406200E+02  2.137168832E+02  0.000000000E+00  0.00000E+00  9.000E+00
      21     1     3     3   511   501 -1.022754262E+01 -1.884463371E+01  2.639244926E+01  3.400417953E+01  9.536743164E-07  0.00000E+00  9.000E+00
      21     1     4     4   507   513  2.362618888E+00 -2.694793715E+00  1.145859248E+01  1.200596614E+01  2.384185791E-07  0.00000E+00  9.000E+00
#rwgt            1          17   37.021965186230211                1     2425164           0       11110           0
<weights>
0.13222E+02
</weights>
</event>
<event>
     15  10001 -1.35503E+01  1.27935E+02 -1.00000E+00  2.69314E-01
      21    -1     0     0   511   501  0.000000000E+00  0.000000000E+00  4.485675250E+02  4.485675250E+02  0.000000000E+00  0.00000E+00  9.000E+00
      21    -1     0     0   501   502  0.000000000E+00  0.000000000E+00 -2.525324176E+02  2.525324176E+02  0.000000000E+00  0.00000E+00  9.000E+00
      -6     2     1     2     0   502  8.149865430E+01 -8.948643859E+01 -1.188162756E+02  2.423076410E+02  1.730486412E+02  0.00000E+00  9.000E+00
       6     2     1     2   507     0  1.747513171E+01  8.420853803E+00  2.766428935E+02  3.252732841E+02  1.699856694E+02  0.00000E+00  9.000E+00
     -24     2     3     3     0     0  3.779839666E+01 -7.863703231E+01 -1.463982194E+02  1.883787452E+02  8.025964968E+01  0.00000E+00  9.000E+00
      24     2     4     4     0     0 -4.727276161E+01 -1.408371504E+01  1.048000846E+02  1.391706799E+02  7.715150932E+01  0.00000E+00  9.000E+00
     -11     1     6     6     0     0  2.069900132E+01 -8.487358997E+00  1.758772098E+01  2.845719325E+01  0.000000000E+00  0.00000E+00  9.000E+00
      12     1     6     6     0     0 -6.797176293E+01 -5.596356043E+00  8.721236366E+01  1.107134867E+02  3.162979880E-06  0.00000E+00  9.000E+00
      13     1     5     5     0     0 -1.973193510E+01 -3.901852423E+01 -3.141102429E+01  5.383722637E+01  0.000000000E+00  0.00000E+00  9.000E+00
     -14     1     5     5     0     0  5.753033176E+01 -3.961850807E+01 -1.149871951E+02  1.345415189E+02  1.907348633E-06  0.00000E+00  9.000E+00
       5     1     4     4   512     0  2.239751583E+01 -1.109420363E+00  5.780644048E+01  6.218542104E+01  4.750000000E+00  0.00000E+00  9.000E+00
      -5     1     3     3     0   514  4.040079510E+01 -1.240583301E+01  2.408352009E+01  4.887440411E+01  4.750000000E+00  0.00000E+00  9.000E+00
      21     1     1     2   511   507 -9.897378601E+01  8.106558479E+01  3.820848946E+01  1.335190175E+02  1.907348633E-06  0.00000E+00  9.000E+00
      21     1     4     4   507   512  4.235037749E+01  2.361398921E+01  1.140363683E+02  1.239171831E+02  1.907348633E-06  0.00000E+00  9.000E+00
      21     1     3     3   514   502  3.299462546E+00  1.556426724E+00  3.498423781E+00  5.054491685E+00  1.685873940E-07  0.00000E+00  9.000E+00
#rwgt            1          17  -28.730673659115666                1     2429994           0       11011           0
<weights>
-.12873E+02
</weights>
</event>
<event>
     14  10001  1.35503E+01  6.54307E+01 -1.00000E+00  7.52622E-01
      21    -1     0     0   507   501  0.000000000E+00  0.000000000E+00  3.562976192E+02  3.562976192E+02  0.000000000E+00  0.00000E+00  9.000E+00
      21    -1     0     0   501   512  0.000000000E+00  0.000000000E+00 -1.021411499E+03  1.021411499E+03  0.000000000E+00  0.00000E+00  9.000E+00
      -6     2     1     2     0   502  4.612531491E+01 -9.423611856E+00 -6.750626184E+02  6.986189480E+02  1.736160897E+02  0.00000E+00  9.000E+00
       6     2     1     2   507     0 -2.206429269E+01  7.026963603E+01 -2.962791004E+02  3.659501683E+02  2.017760283E+02  0.00000E+00  9.000E+00
     -24     2     3     3     0     0 -2.807665221E+01  2.988863012E+01 -4.197897531E+02  4.298473301E+02  8.284721984E+01  0.00000E+00  9.000E+00
      24     2     4     4     0     0 -2.579630030E+01  1.239783709E+00 -2.821101907E+02  2.945321290E+02  8.059794730E+01  0.00000E+00  9.000E+00
     -11     1     6     6     0     0 -3.527022993E+01 -2.280002285E+01 -7.620247155E+01  8.700946403E+01  0.000000000E+00  0.00000E+00  9.000E+00
      12     1     6     6     0     0  9.473929631E+00  2.403980656E+01 -2.059077192E+02  2.075226650E+02  2.697398305E-06  0.00000E+00  9.000E+00
      13     1     5     5     0     0 -1.860096025E+01 -2.778903023E+01 -1.759802746E+02  1.791292354E+02  0.000000000E+00  0.00000E+00  9.000E+00
     -14     1     5     5     0     0 -9.475691961E+00  5.767766036E+01 -2.438094785E+02  2.507180948E+02  3.814697266E-06  0.00000E+00  9.000E+00
       5     1     4     4   511     0  4.508658172E+00  6.609434504E+01 -1.533495277E+01  6.816534106E+01  4.750000000E+00  0.00000E+00  9.000E+00
      -5     1     3     3     0   502  7.420196712E+01 -3.931224198E+01 -2.552728654E+02  2.687716179E+02  4.750000000E+00  0.00000E+00  9.000E+00
      21     1     1     2   502   512 -2.406102221E+01 -6.084602418E+01  3.062278390E+02  3.131400019E+02  7.629394531E-06  0.00000E+00  9.000E+00
      21     1     4     4   507   511 -7.766505658E-01  2.935507278E+00  1.166043155E+00  3.252698222E+00  1.405772735E-07  0.00000E+00  9.000E+00
#rwgt            1          17   50.996310383486701                1     2441988           0         110           0
<weights>
0.14432E+02
</weights>
</event>
<event>
     14  10001  1.35503E+01  1.99717E+01 -1.00000E+00  7.51335E-01
      21    -1     0     0   502   511  0.000000000E+00  0.000000000E+00  3.766640325E+02  3.766640325E+02  0.000000000E+00  0.00000E+00  9.000E+00
      21    -1     0     0   507   502  0.000000000E+00  0.000000000E+00 -4.859261736E+02  4.859261736E+02  0.000000000E+00  0.00000E+00  9.000E+00
      -6     2     1     2     0   501 -6.922757049E+01  1.890466443E+02 -2.519911427E+02  3.658562528E+02  1.726851803E+02  0.00000E+00  9.000E+00
       6     2     1     2   507     0  5.605345556E+01 -2.040570808E+02 -7.279276335E+01  2.802888063E+02  1.687653590E+02  0.00000E+00  9.000E+00
     -24     2     3     3     0     0 -1.137288080E+02  1.514273305E+02 -1.840999708E+02  2.762607918E+02  8.101078717E+01  0.00000E+00  9.000E+00
      24     2     4     4     0     0 -1.681647885E+01 -4.804340738E+01 -2.089374214E+01  9.768193002E+01  8.071089169E+01  0.00000E+00  9.000E+00
     -11     1     6     6     0     0 -5.602883902E+00 -2.779628899E+01  3.030054729E+01  4.149878499E+01  0.000000000E+00  0.00000E+00  9.000E+00
      12     1     6     6     0     0 -1.121359495E+01 -2.024711839E+01 -5.119428943E+01  5.618314503E+01  1.348699152E-06  0.00000E+00  9.000E+00
      13     1     5     5     0     0 -1.859369250E+01  7.359123695E+01 -3.662994622E+01  8.428017867E+01  0.000000000E+00  0.00000E+00  9.000E+00
     -14     1     5     5     0     0 -9.513511553E+01  7.783609353E+01 -1.474700246E+02  1.919806131E+02  5.046370146E-06  0.00000E+00  9.000E+00
       5     1     4     4   512     0  7.109045914E+01 -1.522259369E+02 -4.411293019E+01  1.737673800E+02  4.750000000E+00  0.00000E+00  9.000E+00
      -5     1     3     3     0   501  4.450123755E+01  3.761931382E+01 -6.789117183E+01  8.959546098E+01  4.750000000E+00  0.00000E+00  9.000E+00
      21     1     1     2   501   511  1.317411492E+01  1.501043652E+01  2.155217650E+02  2.164451471E+02  2.697398305E-06  0.00000E+00  9.000E+00
      21     1     4     4   507   512  1.779475279E+00 -3.787736532E+00 -7.786091017E+00  8.839496232E+00  1.460009660E-07  0.00000E+00  9.000E+00
#rwgt            1          17   5.6957357504188861                1     2456478           0         110           0
<weights>
0.14206E+02
</weights>
</event>
<event>
     13  10001  1.35503E+01  2.92784E+02 -1.00000E+00  1.05937E-01
      21    -1     0     0   512   501  0.000000000E+00  0.000000000E+00  1.851670046E+03  1.851670046E+03  0.000000000E+00  0.00000E+00  9.000E+00
      21    -1     0     0   507   502  0.000000000E+00  0.000000000E+00 -1.769580503E+02  1.769580503E+02  0.000000000E+00  0.00000E+00  9.000E+00
      -6     2     1     2     0   501 -1.207492966E+00 -1.579430686E+02  1.391992436E+02  2.758253719E+02  1.782013900E+02  0.00000E+00  9.000E+00
       6     2     1     2   507     0 -1.941259903E+02 -6.015563970E+01  9.733754717E+01  2.851276458E+02  1.746985267E+02  0.00000E+00  9.000E+00
     -24     2     3     3     0     0 -5.936839973E+01 -1.142467233E+02  1.354479499E+02  2.028274515E+02  7.884102549E+01  0.00000E+00  9.000E+00
      24     2     4     4     0     0 -2.260899479E+01 -3.331831122E+01  4.594068287E+01  1.040129802E+02  8.418359227E+01  0.00000E+00  9.000E+00
     -11     1     6     6     0     0 -3.476629974E+01 -1.536918134E+01  6.490047602E+01  7.521289198E+01  0.000000000E+00  0.00000E+00  9.000E+00
      12     1     6     6     0     0  1.215730495E+01 -1.794912988E+01 -1.895979315E+01  2.880008826E+01  6.743495762E-07  0.00000E+00  9.000E+00
      13     1     5     5     0     0 -7.087890756E+01 -5.302405043E+01  8.407106889E+01  1.220791304E+02  0.000000000E+00  0.00000E+00  9.000E+00
     -14     1     5     5     0     0  1.151050784E+01 -6.122267282E+01  5.137688099E+01  8.074832109E+01  6.743495762E-07  0.00000E+00  9.000E+00
       5     1     4     4   507     0 -1.715169955E+02 -2.683732848E+01  5.139686430E+01  1.811146656E+02  4.750000000E+00  0.00000E+00  9.000E+00
      -5     1     3     3     0   501  5.816090676E+01 -4.369634539E+01  3.751293750E+00  7.299792038E+01  4.750000000E+00  0.00000E+00  9.000E+00
      21     1     1     2   512   502  1.953334832E+02  2.180987083E+02  1.438175205E+03  1.467675079E+03  2.642899792E-05  0.00000E+00  9.000E+00
#rwgt            2         113  0.87268620482723436                1     2462957           0           1           0
<weights>
0.13550E+02
</weights>
</event>
<event>
     15  10001  1.35503E+01  4.38719E+01 -1.00000E+00  1.67141E-01
      21    -1     0     0   507   501  0.000000000E+00  0.000000000E+00  3.467773422E+02  3.467773422E+02  0.000000000E+00  0.00000E+00  9.000E+00
      21    -1     0     0   511   502  0.000000000E+00  0.000000000E+00 -4.750137673E+02  4.750137673E+02  0.000000000E+00  0.00000E+00  9.000E+00
      -6     2     1     2     0   502  5.505803342E+00 -5.910473151E+01 -4.081223121E+02  4.451772909E+02  1.676165729E+02  0.00000E+00  9.000E+00
       6     2     1     2   507     0 -3.581747882E+00  1.029344325E+02  2.580708187E+02  3.276174730E+02  1.735636334E+02  0.00000E+00  9.000E+00
     -24     2     3     3     0     0  3.241229128E+01 -3.358301908E+01 -3.448334779E+02  3.573562972E+02  8.133277242E+01  0.00000E+00  9.000E+00
      24     2     4     4     0     0 -3.034147748E+01  1.084028155E+02  1.341141091E+02  1.923343372E+02  7.958723095E+01  0.00000E+00  9.000E+00
     -11     1     6     6     0     0  2.667010102E+01  2.694610479E+01  4.474022267E+01  5.864362178E+01  0.000000000E+00  0.00000E+00  9.000E+00
      12     1     6     6     0     0 -5.701157850E+01  8.145671075E+01  8.937388642E+01  1.336907154E+02  4.672030912E-06  0.00000E+00  9.000E+00
      13     1     5     5     0     0  2.809587719E+01 -6.016847322E+01 -2.602398920E+02  2.685785264E+02  0.000000000E+00  0.00000E+00  9.000E+00
     -14     1     5     5     0     0  4.316414083E+00  2.658545415E+01 -8.459358596E+01  8.877777080E+01  2.861022949E-06  0.00000E+00  9.000E+00
       5     1     4     4   513     0  1.429277190E+01 -2.600469490E+01  6.454666144E+01  7.119944865E+01  4.750000000E+00  0.00000E+00  9.000E+00
      -5     1     3     3     0   512 -3.618069618E+01 -2.448791912E+01 -2.990162154E+01  5.315421366E+01  4.750000000E+00  0.00000E+00  9.000E+00
      21     1     1     2   511   501 -1.924055459E+00 -4.382970094E+01  2.181506831E+01  4.899634557E+01  5.331201500E-07  0.00000E+00  9.000E+00
      21     1     4     4   507   513  1.246695770E+01  2.053631181E+01  5.941004818E+01  6.408368717E+01  1.168007728E-06  0.00000E+00  9.000E+00
      21     1     3     3   512   502  9.274208251E+00 -1.033793313E+00 -3.338721263E+01  3.466677998E+01  0.000000000E+00  0.00000E+00  9.000E+00
#rwgt            1          17   28.253617596039746                1     2464548           0       11011           0
<weights>
0.19824E+02
</weights>
</event>
<event>
     15  10001  1.35503E+01  3.39034E+01 -1.00000E+00  1.72115E-01
      21    -1     0     0   512   501  0.000000000E+00  0.000000000E+00  3.532012013E+02  3.532012013E+02  0.000000000E+00  0.00000E+00  9.000E+00
      21    -1     0     0   501   502  0.000000000E+00  0.000000000E+00 -4.198330237E+02  4.198330237E+02  0.000000000E+00  0.00000E+00  9.000E+00
      -6     2     1     2     0   502  6.496406816E+01  5.900499148E+01  1.522050843E+02  2.181577618E+02  1.293232468E+02  0.00000E+00  9.000E+00
       6     2     1     2   507     0 -9.886626065E+01 -5.928696973E+01  1.055657764E+02  2.287069689E+02  1.669528741E+02  0.00000E+00  9.000E+00
     -24     2     3     3     0     0  5.198078965E+01  4.152887482E+01  1.613460009E+02  1.912531713E+02  7.822143944E+01  0.00000E+00  9.000E+00
      24     2     4     4     0     0 -2.517897429E+01 -5.019268871E+01 -1.238789364E+00  9.776385031E+01  8.001842964E+01  0.00000E+00  9.000E+00
     -11     1     6     6     0     0  2.437617881E+01 -3.802292345E+00  1.375590980E+01  2.824677991E+01  0.000000000E+00  0.00000E+00  9.000E+00
      12     1     6     6     0     0 -4.955515310E+01 -4.639039637E+01 -1.499469916E+01  6.951707040E+01  2.242909398E-06  0.00000E+00  9.000E+00
      13     1     5     5     0     0 -2.008838693E+01  1.059799811E+01  2.365627805E+01  3.279451699E+01  0.000000000E+00  0.00000E+00  9.000E+00
     -14     1     5     5     0     0  7.206917658E+01  3.093087671E+01  1.376897228E+02  1.584586543E+02  4.672030912E-06  0.00000E+00  9.000E+00
       5     1     4     4   513     0 -7.276072664E+01 -9.220689389E+00  1.071604378E+02  1.299425503E+02  4.750000000E+00  0.00000E+00  9.000E+00
      -5     1     3     3     0   511  1.612232565E+00  9.276394295E+00 -7.640956707E-01  1.057341606E+01  4.750000000E+00  0.00000E+00  9.000E+00
      21     1     1     2   512   507  3.390219250E+01  2.819782479E-01 -3.244026832E+02  3.261694943E+02  5.394796609E-06  0.00000E+00  9.000E+00
      21     1     3     3   511   502  1.137104594E+01  8.199722364E+00 -8.376820849E+00  1.633117449E+01  7.251217997E-07  0.00000E+00  9.000E+00
      21     1     4     4   507   513 -9.265597231E-01  1.264083740E-01 -3.558719758E-01  1.000568269E+00  2.580956828E-08  0.00000E+00  9.000E+00
#rwgt            1          17   24.741021584762500                1     2467685           0       11110           0
<weights>
0.15643E+02
</weights>
</event>
<event>
     13  10001  1.35503E+01  1.23563E+02 -1.00000E+00  1.19831E-01
      21    -1     0     0   502   501  0.000000000E+00  0.000000000E+00  1.316393584E+02  1.316393584E+02  0.000000000E+00  0.00000E+00  9.000E+00
      21    -1     0     0   511   502  0.000000000E+00  0.000000000E+00 -5.251048233E+02  5.251048233E+02  0.000000000E+00  0.00000E+00  9.000E+00
      -6     2     1     2     0   501 -7.221577328E+01  6.705814215E+01 -1.480269533E+02  2.479922362E+02  1.728474992E+02  0.00000E+00  9.000E+00
       6     2     1     2   507     0 -4.900733239E+01 -4.312478935E+01 -7.874907949E+01  2.012592624E+02  1.733274563E+02  0.00000E+00  9.000E+00
     -24     2     3     3     0     0 -4.510087103E+01 -1.375886579E+01 -2.261790957E+01  9.628001703E+01  8.083858540E+01  0.00000E+00  9.000E+00
      24     2     4     4     0     0 -9.517738199E+01 -4.713752791E+01 -3.614620274E+01  1.381296881E+02  8.057656098E+01  0.00000E+00  9.000E+00
     -11     1     6     6     0     0 -1.525032080E+01  2.226771641E+01 -2.740759191E+00  2.712812636E+01  0.000000000E+00  0.00000E+00  9.000E+00
      12     1     6     6     0     0 -7.992706118E+01 -6.940524432E+01 -3.340544355E+01  1.110015617E+02  1.168007728E-06  0.00000E+00  9.000E+00
      13     1     5     5     0     0 -3.010484221E+01  2.611094379E+01  1.175077859E+01  4.154712635E+01  0.000000000E+00  0.00000E+00  9.000E+00
     -14     1     5     5     0     0 -1.499602882E+01 -3.986980959E+01 -3.436868816E+01  5.473289068E+01  1.430511475E-06  0.00000E+00  9.000E+00
       5     1     4     4   507     0  4.617004960E+01  4.012738552E+00 -4.260287675E+01  6.312957436E+01  4.750000000E+00  0.00000E+00  9.000E+00
      -5     1     3     3     0   501 -2.711490225E+01  8.081700795E+01 -1.254090438E+02  1.517122192E+02  4.750000000E+00  0.00000E+00  9.000E+00
      21     1     1     2   511   507  1.212231057E+02 -2.393335280E+01 -1.666894321E+02  2.074926830E+02  2.697398305E-06  0.00000E+00  9.000E+00
#rwgt            2         113   9.4479968285409619                1     2479556           0           1           0
<weights>
0.13550E+02
</weights>
</event>
<event>
     15  10001  1.35503E+01  4.80784E+01 -1.00000E+00  2.22020E-01
       2    -1     0     0   502     0  0.000000000E+00  0.000000000E+00  1.799046374E+03  1.799046374E+03  0.000000000E+00  0.00000E+00  9.000E+00
      21    -1     0     0   507   502  0.000000000E+00  0.000000000E+00 -1.134516795E+02  1.134516795E+02  0.000000000E+00  0.00000E+00  9.000E+00
      -6     2     1     2     0   501  2.319427785E+02 -8.577777042E+01  7.614159234E+02  8.189578880E+02  1.725761729E+02  0.00000E+00  9.000E+00
       6     2     1     2   507     0 -2.400119016E+02  1.331742024E+02  2.305637363E+02  3.982608340E+02  1.735251402E+02  0.00000E+00  9.000E+00
     -24     2     3     3     0     0  9.337514545E+01  2.237098920E+01  2.595355313E+02  2.869498521E+02  7.590880468E+01  0.00000E+00  9.000E+00
      24     2     4     4     0     0 -1.327166572E+02  3.056395906E+01  5.004003724E+01  1.641476085E+02  7.676304674E+01  0.00000E+00  9.000E+00
     -11     1     6     6     0     0 -1.134620297E+02  3.859953353E+01  6.695997105E+01  1.372850826E+02  0.000000000E+00  0.00000E+00  9.000E+00
      12     1     6     6     0     0 -1.925462750E+01 -8.035574470E+00 -1.691993381E+01  2.686252590E+01  2.336015456E-06  0.00000E+00  9.000E+00
      13     1     5     5     0     0  8.061678960E+01 -3.057031982E+00  2.379046874E+02  2.512111712E+02  0.000000000E+00  0.00000E+00  9.000E+00
     -14     1     5     5     0     0  1.275835585E+01  2.542802118E+01  2.163084391E+01  3.573868092E+01  7.907449699E-07  0.00000E+00  9.000E+00
       5     1     4     4   511     0 -1.065482913E+02  1.016561758E+02  1.803572838E+02  2.328901646E+02  4.750000000E+00  0.00000E+00  9.000E+00
      -5     1     3     3     0   512  1.108146499E+02 -9.369895051E+01  4.142831487E+02  4.389902844E+02  4.750000000E+00  0.00000E+00  9.000E+00
       2     1     1     2   501     0  8.069123152E+00 -4.739643198E+01  6.936150348E+02  6.952793316E+02  0.000000000E+00  0.00000E+00  9.000E+00
      21     1     3     3   512   501  2.775298309E+01 -1.444980911E+01  8.759724339E+01  9.301775155E+01  1.651812370E-06  0.00000E+00  9.000E+00
      21     1     4     4   507   511 -7.469531000E-01  9.540675578E-01  1.664152225E-01  1.223060859E+00  4.566330713E-08  0.00000E+00  9.000E+00
#rwgt            1          17   24.612377051935585                1     2480043           0       11110           0
<weights>
0.14925E+02
</weights>
</event>
<event>
     15  10001  1.35503E+01  7.50361E+00 -1.00000E+00  1.81817E-01
      21    -1     0     0   502   513  0.000000000E+00  0.000000000E+00  1.186391545E+02  1.186391545E+02  0.000000000E+00  0.00000E+00  9.000E+00
      21    -1     0     0   507   502  0.000000000E+00  0.000000000E+00 -3.626319802E+02  3.626319802E+02  0.000000000E+00  0.00000E+00  9.000E+00
      -6     2     1     2     0   501  2.042749066E+01 -7.819143751E+01 -1.099681858E+02  2.189337236E+02  1.711951815E+02  0.00000E+00  9.000E+00
       6     2     1     2   507     0 -2.616766766E+01  7.335877869E+01 -1.528518078E+02  2.420700365E+02  1.707863290E+02  0.00000E+00  9.000E+00
     -24     2     3     3     0     0 -5.689336843E+01 -8.615246122E+01 -5.952882905E+01  1.249751489E+02  3.762983400E+01  0.00000E+00  9.000E+00
      24     2     4     4     0     0  8.762141033E+00 -1.790424738E+01 -3.668882734E+01  9.014063189E+01  7.988695936E+01  0.00000E+00  9.000E+00
     -11     1     6     6     0     0 -2.548528780E+01  9.172468379E+00  7.415433594E+00  2.808242735E+01  0.000000000E+00  0.00000E+00  9.000E+00
      12     1     6     6     0     0  3.424742884E+01 -2.707671576E+01 -4.410426093E+01  6.205820454E+01  1.348699152E-06  0.00000E+00  9.000E+00
      13     1     5     5     0     0 -3.326141730E+01 -3.963929044E+01 -4.996958725E+01  7.193437897E+01  0.000000000E+00  0.00000E+00  9.000E+00
     -14     1     5     5     0     0 -2.363195113E+01 -4.651317078E+01 -9.559241791E+00  5.304076992E+01  1.332800375E-06  0.00000E+00  9.000E+00
       5     1     4     4   512     0 -2.241046285E+01  5.755234758E+01 -7.210260038E+01  9.505708305E+01  4.750000000E+00  0.00000E+00  9.000E+00
      -5     1     3     3     0   511  4.545859227E+01 -1.380949833E+00 -3.348936626E+01  5.667883897E+01  4.750000000E+00  0.00000E+00  9.000E+00
      21     1     3     3   511   501  3.186226683E+01  9.341973546E+00 -1.694999049E+01  3.727973571E+01  0.000000000E+00  0.00000E+00  9.000E+00
      21     1     1     2   501   513  5.740176995E+00  4.832658825E+00  1.882716787E+01  2.026737460E+01  3.371747881E-07  0.00000E+00  9.000E+00
      21     1     4     4   507   512 -1.251934584E+01  3.371067848E+01 -4.406038012E+01  5.687232157E+01  0.000000000E+00  0.00000E+00  9.000E+00
#rwgt            1          17   25.899007808653256                1     2487016           0      110110           0
<weights>
0.15868E+02
</weights>
</event>
<event>
     13  10001  1.35503E+01  3.07455E+02 -1.00000E+00  1.05247E-01
      21    -1     0     0   507   512  0.000000000E+00  0.000000000E+00  1.788702035E+02  1.788702035E+02  0.000000000E+00  0.00000E+00  9.000E+00
      21    -1     0     0   501   502  0.000000000E+00  0.000000000E+00 -1.179785854E+03  1.179785854E+03  0.000000000E+00  0.00000E+00  9.000E+00
      -6     2     1     2     0   502  5.105429913E+01 -2.512753352E+02 -4.720292739E+02  5.647813880E+02  1.744148655E+02  0.00000E+00  9.000E+00
       6     2     1     2   507     0 -1.372335462E+02 -4.385450524E+01 -3.806861550E+02  4.525657319E+02  1.978320734E+02  0.00000E+00  9.000E+00
     -24     2     3     3     0     0  9.717591101E+01 -1.904283631E+02 -3.944218656E+02  4.558087795E+02  8.054139444E+01  0.00000E+00  9.000E+00
      24     2     4     4     0     0 -1.017753400E+02  5.390165661E+01 -2.259951221E+02  2.661108319E+02  8.048336009E+01  0.00000E+00  9.000E+00
     -11     1     6     6     0     0  1.263202865E+01  1.102442129E+01 -4.223049111E+01  4.543699365E+01  0.000000000E+00  0.00000E+00  9.000E+00
      12     1     6     6     0     0 -1.144073686E+02  4.287723532E+01 -1.837646310E+02  2.206738383E+02  3.814697266E-06  0.00000E+00  9.000E+00
      13     1     5     5     0     0  3.766530485E+01 -2.282528168E+01 -1.289703015E+02  1.362828212E+02  0.000000000E+00  0.00000E+00  9.000E+00
     -14     1     5     5     0     0  5.951060616E+01 -1.676030815E+02 -2.654515641E+02  3.195259583E+02  3.814697266E-06  0.00000E+00  9.000E+00
       5     1     4     4   507     0 -3.545820626E+01 -9.775616184E+01 -1.546910329E+02  1.864549000E+02  4.750000000E+00  0.00000E+00  9.000E+00
      -5     1     3     3     0   502 -4.612161188E+01 -6.084697207E+01 -7.760740824E+01  1.089726085E+02  4.750000000E+00  0.00000E+00  9.000E+00
      21     1     1     2   501   512  8.617924710E+01  2.951298404E+02 -1.482002221E+02  3.413089380E+02  3.814697266E-06  0.00000E+00  9.000E+00
#rwgt            2         113   13.837701404362763                1     2492322           0           1           0
<weights>
0.13550E+02
</weights>
</event>
<event>
     15  10001  1.35503E+01  2.02236E+01 -1.00000E+00  5.60274E-01
      21    -1     0     0   512   501  0.000000000E+00  0.000000000E+00  1.369581012E+03  1.369581012E+03  0.000000000E+00  0.00000E+00  9.000E+00
      21    -1     0     0   501   502  0.000000000E+00  0.000000000E+00 -1.023575928E+02  1.023575928E+02  0.000000000E+00  0.00000E+00  9.000E+00
      -6     2     1     2     0   502 -1.700981053E+01 -6.430320519E+00  1.592076576E+01  1.735601000E+02  1.718690049E+02  0.00000E+00  9.000E+00
       6     2     1     2   507     0 -7.264137617E-01 -3.286615914E+00  2.894215604E+02  3.362848349E+02  1.712054936E+02  0.00000E+00  9.000E+00
     -24     2     3     3     0     0 -1.566274462E+01 -4.776355551E+01  6.043187347E+01  1.125448900E+02  8.054602493E+01  0.00000E+00  9.000E+00
      24     2     4     4     0     0  1.693432874E+00  3.795362261E+01  2.413160883E+02  2.574201492E+02  8.116855007E+01  0.00000E+00  9.000E+00
     -11     1     6     6     0     0 -5.325239982E+00  3.419420294E+01  2.458391983E+02  2.482629919E+02  0.000000000E+00  0.00000E+00  9.000E+00
      12     1     6     6     0     0  7.018672855E+00  3.759419675E+00 -4.523110023E+00  9.157157268E+00  4.768371582E-07  0.00000E+00  9.000E+00
      13     1     5     5     0     0 -1.982528034E+01 -6.938970767E+01  4.003507718E+01  8.252745408E+01  0.000000000E+00  0.00000E+00  9.000E+00
     -14     1     5     5     0     0  4.162535718E+00  2.162615216E+01  2.039679629E+01  3.001743593E+01  7.539457465E-07  0.00000E+00  9.000E+00
       5     1     4     4   511     0  5.702362580E+00 -1.551430622E+01 -6.156161499E+00  1.826667624E+01  4.750000000E+00  0.00000E+00  9.000E+00
      -5     1     3     3     0   513 -7.236970476E-01  3.640090323E+01 -3.825276930E+01  5.302250798E+01  4.750000000E+00  0.00000E+00  9.000E+00
      21     1     4     4   507   511 -8.122209216E+00 -2.572593231E+01  5.426163360E+01  6.059800951E+01  1.507891493E-06  0.00000E+00  9.000E+00
      21     1     1     2   512   507  1.773622429E+01  9.716936433E+00  9.618810932E+02  9.620936701E+02  1.525878906E-05  0.00000E+00  9.000E+00
      21     1     3     3   513   502 -6.233688551E-01  4.932331768E+00 -6.258338408E+00  7.992701986E+00  3.371747881E-07  0.00000E+00  9.000E+00
#rwgt            1          17  0.93759896133413823                1     2492617           0      100111           0
<weights>
0.15651E+02
</weights>
</event>
<event>
     14  10001  1.35503E+01  2.98942E+01 -1.00000E+00  1.61526E-01
      21    -1     0     0   502   512  0.000000000E+00  0.000000000E+00  1.139878381E+03  1.139878381E+03  0.000000000E+00  0.00000E+00  9.000E+00
      21    -1     0     0   507   502  0.000000000E+00  0.000000000E+00 -7.083306606E+01  7.083306606E+01  0.000000000E+00  0.00000E+00  9.000E+00
      -6     2     1     2     0   501  8.254711214E+01 -1.806762834E+02  7.045610742E+02  7.521055178E+02  1.726222973E+02  0.00000E+00  9.000E+00
       6     2     1     2   507     0 -5.536613795E+01  1.682320341E+02  3.144423868E+02  4.003148336E+02  1.732354608E+02  0.00000E+00  9.000E+00
     -24     2     3     3     0     0  8.654992915E+01 -1.700153935E+02  4.730456981E+02  5.164547289E+02  8.097610924E+01  0.00000E+00  9.000E+00
      24     2     4     4     0     0 -2.381177577E+01  4.138687218E+01  5.305650469E+01  1.080298447E+02  8.108995501E+01  0.00000E+00  9.000E+00
     -11     1     6     6     0     0 -4.190067878E+01  4.914274045E+01  5.899650507E+01  8.747150068E+01  0.000000000E+00  0.00000E+00  9.000E+00
      12     1     6     6     0     0  1.808890301E+01 -7.755868271E+00 -5.940000375E+00  2.055834403E+01  1.264405455E-06  0.00000E+00  9.000E+00
      13     1     5     5     0     0  1.823497754E+01 -1.990103459E+01  1.634990604E+02  1.657121249E+02  0.000000000E+00  0.00000E+00  9.000E+00
     -14     1     5     5     0     0  6.831495161E+01 -1.501143590E+02  3.095466376E+02  3.507426040E+02  6.607249480E-06  0.00000E+00  9.000E+00
       5     1     4     4   507     0 -3.155436218E+01  1.268451619E+02  2.613858821E+02  2.922849889E+02  4.750000000E+00  0.00000E+00  9.000E+00
      -5     1     3     3     0   511  4.950470747E+00  8.875871865E+00  1.721521937E+02  1.725173282E+02  4.750000000E+00  0.00000E+00  9.000E+00
      21     1     1     2   501   512 -2.718097419E+01  1.244424929E+01  5.004185441E+01  5.829109615E+01  9.536743164E-07  0.00000E+00  9.000E+00
      21     1     3     3   511   501 -8.953287760E+00 -1.953676167E+01  5.936318243E+01  6.313346060E+01  0.000000000E+00  0.00000E+00  9.000E+00
#rwgt            1          17   21.469858486130253                1     2500909           0         111           0
<weights>
0.91775E+01
</weights>
</event>
<event>
     15  10001  1.35503E+01  2.03424E+02 -1.00000E+00  3.10086E-01
      21    -1     0     0   511   501  0.000000000E+00  0.000000000E+00  1.884471653E+02  1.884471653E+02  0.000000000E+00  0.00000E+00  9.000E+00
      21    -1     0     0   507   502  0.000000000E+00  0.000000000E+00 -1.382189239E+03  1.382189239E+03  0.000000000E+00  0.00000E+00  9.000E+00
      -6     2     1     2     0   501 -3.480330544E+02 -1.123542792E+02 -7.220405769E+02  8.275896054E+02  1.726599821E+02  0.00000E+00  9.000E+00
       6     2     1     2   507     0  1.479418710E+02  1.490263466E+02 -5.227062782E+01  2.768884824E+02  1.727407421E+02  0.00000E+00  9.000E+00
     -24     2     3     3     0     0 -1.007000170E+02 -3.143057749E+01 -1.567830581E+02  2.050876239E+02  7.969712381E+01  0.00000E+00  9.000E+00
      24     2     4     4     0     0  1.478950923E+02  1.333812913E+02 -9.356623071E+01  2.312496196E+02  7.112116297E+01  0.00000E+00  9.000E+00
     -11     1     6     6     0     0  6.452745027E+01  2.214832537E+01 -5.316074953E+01  8.648933718E+01  0.000000000E+00  0.00000E+00  9.000E+00
      12     1     6     6     0     0  8.336764206E+01  1.112329659E+02 -4.040548119E+01  1.447602824E+02  5.499154374E-06  0.00000E+00  9.000E+00
      13     1     5     5     0     0  9.596121053E+00 -1.502576615E+01 -3.905854959E+01  4.293517770E+01  0.000000000E+00  0.00000E+00  9.000E+00
     -14     1     5     5     0     0 -1.102961381E+02 -1.640481135E+01 -1.177245085E+02  1.621524462E+02  3.303624740E-06  0.00000E+00  9.000E+00
       5     1     4     4   512     0 -6.991357925E-01  1.698142833E+01  3.960341444E+01  4.335724431E+01  4.750000000E+00  0.00000E+00  9.000E+00
      -5     1     3     3     0   514 -2.444124148E+02 -7.796265879E+01 -5.567346197E+02  6.130184369E+02  4.750000000E+00  0.00000E+00  9.000E+00
      21     1     1     2   511   502  2.000911834E+02 -3.667206738E+01 -4.194308692E+02  4.661583167E+02  7.629394531E-06  0.00000E+00  9.000E+00
      21     1     4     4   507   512  7.459144832E-01 -1.336373041E+00  1.692188455E+00  2.281618524E+00  2.980232239E-08  0.00000E+00  9.000E+00
      21     1     3     3   514   501 -2.920622517E+00 -2.961042901E+00 -8.522899055E+00  9.483544657E+00  1.685873940E-07  0.00000E+00  9.000E+00
#rwgt            1          17   14.461770598328538                1     2509568           0       11011           0
<weights>
0.10329E+02
</weights>
</event>
<event>
     15  10001  1.35503E+01  1.85034E+01 -1.00000E+00  3.04347E-01
      21    -1     0     0   507   512  0.000000000E+00  0.000000000E+00  5.340947422E+02  5.340947422E+02  0.000000000E+00  0.00000E+00  9.000E+00
      21    -1     0     0   501   502  0.000000000E+00  0.000000000E+00 -8.302635827E+02  8.302635827E+02  0.000000000E+00  0.00000E+00  9.000E+00
      -6     2     1     2     0   502 -1.887298722E+01  1.228751857E+01  6.982188339E+01  1.887717370E+02  1.739324597E+02  0.00000E+00  9.000E+00
       6     2     1     2   507     0  3.091129976E+01  1.764376132E+00  3.856753967E+02  4.236927565E+02  1.726598356E+02  0.00000E+00  9.000E+00
     -24     2     3     3     0     0  5.274734498E+01  3.261208195E+01  5.407359575E+01  1.124233872E+02  7.661092579E+01  0.00000E+00  9.000E+00
      24     2     4     4     0     0  2.995209559E+01  6.733065033E+01  2.497849506E+02  2.721560230E+02  7.903059420E+01  0.00000E+00  9.000E+00
     -11     1     6     6     0     0  3.117006830E+01  3.659891019E+00  3.031837056E+01  4.363681420E+01  0.000000000E+00  0.00000E+00  9.000E+00
      12     1     6     6     0     0 -1.217972707E+00  6.367075931E+01  2.194665800E+02  2.285192088E+02  7.136645101E-06  0.00000E+00  9.000E+00
      13     1     5     5     0     0  4.660393437E+01 -1.533419958E+01  1.861644930E+01  5.247510420E+01  0.000000000E+00  0.00000E+00  9.000E+00
     -14     1     5     5     0     0  6.143410609E+00  4.794628153E+01  3.545714644E+01  5.994828304E+01  1.846782373E-06  0.00000E+00  9.000E+00
       5     1     4     4   511     0 -4.149233174E+00 -5.406147364E+01  1.124738534E+02  1.249511476E+02  4.750000000E+00  0.00000E+00  9.000E+00
      -5     1     3     3     0   513 -4.785420548E+01 -1.305551808E+01  1.140884629E+01  5.111942692E+01  4.750000000E+00  0.00000E+00  9.000E+00
      21     1     1     2   501   512 -1.203831255E+01 -1.405189470E+01 -7.516661206E+02  7.518938313E+02  1.868812365E-05  0.00000E+00  9.000E+00
      21     1     4     4   507   511  5.108437344E+00 -1.150480056E+01  2.341659267E+01  2.658558595E+01  7.539457465E-07  0.00000E+00  9.000E+00
      21     1     3     3   513   502 -2.376612672E+01 -7.269045302E+00  4.339441353E+00  2.522892289E+01  4.878850443E-07  0.00000E+00  9.000E+00
#rwgt            1          17   14.302252844832253                1     2517611           0       11011           0
<weights>
0.20784E+02
</weights>
</event>
<event>
     14  10001  1.35503E+01  8.85896E+01 -1.00000E+00  2.32427E-01
       2    -1     0     0   507     0  0.000000000E+00  0.000000000E+00  7.904474067E+02  7.904474067E+02  0.000000000E+00  0.00000E+00  9.000E+00
      21    -1     0     0   501   502  0.000000000E+00  0.000000000E+00 -2.122376925E+02  2.122376925E+02  0.000000000E+00  0.00000E+00  9.000E+00
      -6     2     1     2     0   502 -4.523712542E+01  5.575056114E+00 -1.246384715E+02  1.752119362E+02  1.143984057E+02  0.00000E+00  9.000E+00
       6     2     1     2   507     0  2.874687491E+01  8.146627346E+01  9.951717237E+01  2.176728407E+02  1.732473995E+02  0.00000E+00  9.000E+00
     -24     2     3     3     0     0 -6.141815539E+01 -1.720297402E+00 -8.434406965E+01  1.294669994E+02  7.663310389E+01  0.00000E+00  9.000E+00
      24     2     4     4     0     0 -2.099890597E+00  4.169147287E+01 -1.569739306E+01  9.185346103E+01  8.029982382E+01  0.00000E+00  9.000E+00
     -11     1     6     6     0     0  3.730260276E+01  1.243207349E+01  2.766631035E+00  3.941693635E+01  0.000000000E+00  0.00000E+00  9.000E+00
      12     1     6     6     0     0 -3.940249336E+01  2.925939938E+01 -1.846402409E+01  5.243652468E+01  1.066240300E-06  0.00000E+00  9.000E+00
      13     1     5     5     0     0  2.110290760E+00  2.788220131E+01 -2.063567432E+01  3.475200040E+01  0.000000000E+00  0.00000E+00  9.000E+00
     -14     1     5     5     0     0 -6.352844615E+01 -2.960249871E+01 -6.370839532E+01  9.471499900E+01  3.303624740E-06  0.00000E+00  9.000E+00
       5     1     4     4   507     0  3.084676551E+01  3.977480059E+01  1.152145654E+02  1.258193796E+02  4.750000000E+00  0.00000E+00  9.000E+00
      -5     1     3     3     0   512  1.631051189E+01  3.651289105E+00 -2.830160538E+01  3.321005988E+01  4.750000000E+00  0.00000E+00  9.000E+00
       2     1     1     2   501     0  1.649025051E+01 -8.704132957E+01  6.033310134E+02  6.098003223E+02  0.000000000E+00  0.00000E+00  9.000E+00
      21     1     3     3   512   502 -1.294819218E-01  3.644064410E+00 -1.199279651E+01  1.253487691E+01  3.371747881E-07  0.00000E+00  9.000E+00
#rwgt            1          17   17.671760895346303                1     2526600           0         111           0
<weights>
0.10117E+02
</weights>
</event>
<event>
     14  10001  1.35503E+01  2.92763E+01 -1.00000E+00  1.81259E-01
       2    -1     0     0   507     0  0.000000000E+00  0.000000000E+00  1.027111732E+03  1.027111732E+03  0.000000000E+00  0.00000E+00  9.000E+00
      -2    -1     0     0     0   511  0.000000000E+00  0.000000000E+00 -2.302764231E+02  2.302764231E+02  0.000000000E+00  0.00000E+00  9.000E+00
      -6     2     1     2     0   502 -2.586504340E+02 -7.073145102E+01  2.018456591E+02  3.778533503E+02  1.735756292E+02  0.00000E+00  9.000E+00
       6     2     1     2   507     0  2.363118258E+02  8.965471309E+01  7.033253863E+02  7.673129920E+02  1.738429809E+02  0.00000E+00  9.000E+00
     -24     2     3     3     0     0 -1.779225166E+02 -9.673417710E+01  1.724685026E+02  2.804440788E+02  8.882327399E+01  0.00000E+00  9.000E+00
      24     2     4     4     0     0  1.120931262E+02  3.287114056E+01  2.158405525E+02  2.610337359E+02  8.891617595E+01  0.00000E+00  9.000E+00
     -11     1     6     6     0     0  1.196045837E+02  4.665090742E+01  2.052755377E+02  2.421148695E+02  0.000000000E+00  0.00000E+00  9.000E+00
      12     1     6     6     0     0 -7.511457590E+00 -1.377976686E+01  1.056501480E+01  1.891886644E+01  5.717076687E-07  0.00000E+00  9.000E+00
      13     1     5     5     0     0 -5.157071694E+01  1.346736111E+01  3.679149804E+01  6.476513714E+01  0.000000000E+00  0.00000E+00  9.000E+00
     -14     1     5     5     0     0 -1.263517997E+02 -1.102015382E+02  1.356770046E+02  2.156789417E+02  4.672030912E-06  0.00000E+00  9.000E+00
       5     1     4     4   507     0  1.242186996E+02  5.678357253E+01  4.874848338E+02  5.062792561E+02  4.750000000E+00  0.00000E+00  9.000E+00
      -5     1     3     3     0   513 -7.604379071E+01  3.412122428E+01  2.697788704E+01  8.773417203E+01  4.750000000E+00  0.00000E+00  9.000E+00
      21     1     1     2   502   511  2.233860828E+01 -1.892326207E+01 -1.083357370E+02  1.122218124E+02  1.907348633E-06  0.00000E+00  9.000E+00
      21     1     3     3   513   502 -4.684126694E+00 -8.118498194E+00  2.399269398E+00  9.675099455E+00  2.086162567E-07  0.00000E+00  9.000E+00
#rwgt            1           8   1.3576234663137088                1     2540194           0         111           0
<weights>
0.13136E+02
</weights>
</event>
<event>
     14  10001  1.35503E+01  2.87005E+01 -1.00000E+00  2.50066E-01
      21    -1     0     0   502   512  0.000000000E+00  0.000000000E+00  3.889161501E+02  3.889161501E+02  0.000000000E+00  0.00000E+00  9.000E+00
      21    -1     0     0   507   502  0.000000000E+00  0.000000000E+00 -2.081891080E+02  2.081891080E+02  0.000000000E+00  0.00000E+00  9.000E+00
      -6     2     1     2     0   501 -5.197899000E+01 -3.373507106E+01  2.145600031E+02  2.816876031E+02  1.716742275E+02  0.00000E+00  9.000E+00
       6     2     1     2   507     0  2.685622006E+01  1.985820626E+01 -1.275101738E+02  2.174424484E+02  1.729357367E+02  0.00000E+00  9.000E+00
     -24     2     3     3     0     0  3.182235791E+01 -2.745961272E+01  7.366663188E+01  1.174178001E+02  8.120021147E+01  0.00000E+00  9.000E+00
      24     2     4     4     0     0  6.605406898E+01 -1.992934288E+01 -4.243784814E+01  1.155631889E+02  8.242306070E+01  0.00000E+00  9.000E+00
     -11     1     6     6     0     0  3.832385616E+01 -5.041949242E+01 -3.860757647E+01  7.417134304E+01  0.000000000E+00  0.00000E+00  9.000E+00
      12     1     6     6     0     0  2.773021282E+01  3.049014954E+01 -3.830271673E+00  4.139184585E+01  1.103088589E-06  0.00000E+00  9.000E+00
      13     1     5     5     0     0 -2.577090858E+01 -1.059677464E+00  1.018662469E+01  2.773138957E+01  0.000000000E+00  0.00000E+00  9.000E+00
     -14     1     5     5     0     0  5.759326649E+01 -2.639993526E+01  6.348000719E+01  8.968641056E+01  2.780414531E-06  0.00000E+00  9.000E+00
       5     1     4     4   507     0 -3.919784892E+01  3.978754914E+01 -8.507232562E+01  1.018792595E+02  4.750000000E+00  0.00000E+00  9.000E+00
      -5     1     3     3     0   511 -5.877640856E+01 -1.844433206E+00  9.585499268E+01  1.125558095E+02  4.750000000E+00  0.00000E+00  9.000E+00
      21     1     1     2   501   512  2.512276994E+01  1.387686480E+01  9.367721275E+01  9.797520674E+01  1.907348633E-06  0.00000E+00  9.000E+00
      21     1     3     3   511   501 -2.502493935E+01 -4.431025129E+00  4.503837851E+01  5.171399339E+01  9.536743164E-07  0.00000E+00  9.000E+00
#rwgt            1          17   11.122283629963537                1     2542945           0         111           0
<weights>
0.12798E+02
</weights>
</event>
<event>
     15  10001  1.35503E+01  1.75836E+01 -1.00000E+00  2.09672E-01
      21    -1     0     0   507   501  0.000000000E+00  0.000000000E+00  3.482678954E+02  3.482678954E+02  0.000000000E+00  0.00000E+00  9.000E+00
      -1    -1     0     0     0   502  0.000000000E+00  0.000000000E+00 -1.519576393E+02  1.519576393E+02  0.000000000E+00  0.00000E+00  9.000E+00
      -6     2     1     2     0   502 -2.766416131E+01 -1.326131972E+02  1.558483879E+02  2.691925940E+02  1.726973270E+02  0.00000E+00  9.000E+00
       6     2     1     2   507     0  2.910405445E+01  1.150886987E+02  3.334713084E+01  2.120645243E+02  1.725307994E+02  0.00000E+00  9.000E+00
     -24     2     3     3     0     0 -5.086966297E+00 -2.872717292E+01  9.547707558E+00  8.672212918E+01  8.110759076E+01  0.00000E+00  9.000E+00
      24     2     4     4     0     0  2.278670427E+01  1.478524788E+02  4.595240761E+01  1.756443366E+02  7.974785157E+01  0.00000E+00  9.000E+00
     -11     1     6     6     0     0  3.684289539E+01  2.681235915E+01  2.509119863E+01  5.201797567E+01  0.000000000E+00  0.00000E+00  9.000E+00
      12     1     6     6     0     0 -1.405619112E+01  1.210401197E+02  2.086120898E+01  1.236263609E+02  1.862108630E-06  0.00000E+00  9.000E+00
      13     1     5     5     0     0  2.423122863E+01  1.003100224E+01 -1.709021020E+01  3.130253554E+01  0.000000000E+00  0.00000E+00  9.000E+00
     -14     1     5     5     0     0 -2.931819492E+01 -3.875817516E+01  2.663791776E+01  5.541959363E+01  2.105655877E-06  0.00000E+00  9.000E+00
       5     1     4     4   511     0  5.208272188E+00 -2.304950633E+01 -1.106687065E+01  2.652251812E+01  4.750000000E+00  0.00000E+00  9.000E+00
      -5     1     3     3     0   512 -2.613568162E+01 -9.983186622E+01  1.354104293E+02  1.703174161E+02  4.750000000E+00  0.00000E+00  9.000E+00
      -1     1     1     2     0   501 -1.439893144E+00  1.752449846E+01  7.114737327E+00  1.896841654E+01  0.000000000E+00  0.00000E+00  9.000E+00
      21     1     3     3   512   502  3.558486609E+00 -4.054158050E+00  1.089025108E+01  1.215304871E+01  2.665600750E-07  0.00000E+00  9.000E+00
      21     1     4     4   507   511  1.109077994E+00 -9.714273767E+00 -1.538406123E+00  9.897669534E+00  2.117852927E-07  0.00000E+00  9.000E+00
#rwgt            1          17   7.5375991732285517                1     2560447           0       11110           0
<weights>
0.69441E+01
</weights>
</event>
<event>
     15  10001  1.35503E+01  6.66787E+00 -1.00000E+00  2.16338E-01
      21    -1     0     0   513   501  0.000000000E+00  0.000000000E+00  4.134089910E+02  4.134089910E+02  0.000000000E+00  0.00000E+00  9.000E+00
      21    -1     0     0   507   502  0.000000000E+00  0.000000000E+00 -1.081361926E+02  1.081361926E+02  0.000000000E+00  0.00000E+00  9.000E+00
      -6     2     1     2     0   501  3.001731843E+01  5.603245641E+01  2.652534148E+02  3.234663080E+02  1.738689240E+02  0.00000E+00  9.000E+00
       6     2     1     2   507     0 -2.335140457E+01 -5.619397657E+01  4.628324728E+01  1.889302973E+02  1.727699834E+02  0.00000E+00  9.000E+00
     -24     2     3     3     0     0  1.335531868E+01  1.701527891E+00  2.403107228E+02  2.567673612E+02  8.943698662E+01  0.00000E+00  9.000E+00
      24     2     4     4     0     0 -6.637297662E+01  8.981365602E+00  3.491306253E+01  1.092670771E+02  7.895780674E+01  0.00000E+00  9.000E+00
     -11     1     6     6     0     0 -3.327096762E+01  4.410207764E+01  1.725926417E+01  5.787773957E+01  0.000000000E+00  0.00000E+00  9.000E+00
      12     1     6     6     0     0 -3.310200901E+01 -3.512071203E+01  1.765379836E+01  5.138933752E+01  1.369610464E-06  0.00000E+00  9.000E+00
      13     1     5     5     0     0  4.785409983E+01 -8.287053858E-01  1.884206621E+02  1.944043403E+02  0.000000000E+00  0.00000E+00  9.000E+00
     -14     1     5     5     0     0 -3.449878114E+01  2.530233277E+00  5.189006065E+01  6.236302089E+01  6.743495762E-07  0.00000E+00  9.000E+00
       5     1     4     4   512     0  4.256270645E+01 -6.187089917E+01  1.218883543E+01  7.622809425E+01  4.750000000E+00  0.00000E+00  9.000E+00
      -5     1     3     3     0   511  1.639558333E+01  4.788083245E+01  1.199125701E+01  5.222778966E+01  4.750000000E+00  0.00000E+00  9.000E+00
      21     1     3     3   511   501  2.664164094E-01  6.450096070E+00  1.295143504E+01  1.447115706E+01  4.129530925E-07  0.00000E+00  9.000E+00
      21     1     1     2   513   502 -6.665913858E+00  1.615201661E-01 -6.263863813E+00  9.148578370E+00  2.230201594E-07  0.00000E+00  9.000E+00
      21     1     4     4   507   512  4.588656032E-01 -3.304443005E+00 -8.186506820E-01  3.435125930E+00  7.814234854E-08  0.00000E+00  9.000E+00
#rwgt            1          17   3.9893061316673402                1     2566033           0      110110           0
<weights>
0.24659E+02
</weights>
</event>
<event>
     15  10001  1.35503E+01  3.79132E+01 -1.00000E+00  2.10111E-01
       2    -1     0     0   512     0  0.000000000E+00  0.000000000E+00  7.442114347E+02  7.442114347E+02  0.000000000E+00  0.00000E+00  9.000E+00
      -2    -1     0     0     0   502  0.000000000E+00  0.000000000E+00 -3.311298316E+02  3.311298316E+02  0.000000000E+00  0.00000E+00  9.000E+00
      -6     2     1     2     0   502  1.583791288E+02  2.980306108E+01  7.573147096E+00  2.368379945E+02  1.733860208E+02  0.00000E+00  9.000E+00
       6     2     1     2   507     0 -1.596672858E+02  8.088276522E+00  5.979552256E+02  6.423574793E+02  1.717952761E+02  0.00000E+00  9.000E+00
     -24     2     3     3     0     0  1.269242278E+02  2.098640891E+01  6.653272354E+01  1.647332660E+02  7.848730258E+01  0.00000E+00  9.000E+00
      24     2     4     4     0     0 -1.138427912E+02  1.515341132E+01  2.184674229E+02  2.599199048E+02  8.148947813E+01  0.00000E+00  9.000E+00
     -11     1     6     6     0     0 -5.645797571E+01  9.932481214E+00  3.397124991E+01  6.663484843E+01  0.000000000E+00  0.00000E+00  9.000E+00
      12     1     6     6     0     0 -5.738481549E+01  5.220930103E+00  1.844961730E+02  1.932850564E+02  0.000000000E+00  0.00000E+00  9.000E+00
      13     1     5     5     0     0  8.417996113E+01 -9.249112507E+00  7.322012822E+01  1.119508781E+02  0.000000000E+00  0.00000E+00  9.000E+00
     -14     1     5     5     0     0  4.274426672E+01  3.023552142E+01 -6.687404671E+00  5.278238791E+01  8.554875907E-07  0.00000E+00  9.000E+00
       5     1     4     4   513     0 -4.120507067E+01 -5.616241907E+00  3.562743489E+02  3.587246496E+02  4.750000000E+00  0.00000E+00  9.000E+00
      -5     1     3     3     0   511  1.989187155E+01  9.130212041E+00 -5.578003305E+01  6.010841799E+01  4.750000000E+00  0.00000E+00  9.000E+00
      21     1     1     2   512   507  1.288157043E+00 -3.789133760E+01 -1.924467696E+02  1.961457926E+02  6.031565972E-06  0.00000E+00  9.000E+00
      21     1     3     3   511   502  1.156302941E+01 -3.135598779E-01 -3.179543398E+00  1.199631048E+01  3.953724850E-07  0.00000E+00  9.000E+00
      21     1     4     4   507   513 -4.619423977E+00 -1.448892886E+00  2.321345382E+01  2.371292489E+01  3.371747881E-07  0.00000E+00  9.000E+00
#rwgt            1           8  0.46666011549464576                1     2573706           0       11110           0
<weights>
0.80101E+01
</weights>
</event>
<event>
     14  10001  1.35503E+01  3.00006E+01 -1.00000E+00  7.51454E-01
      21    -1     0     0   511   501  0.000000000E+00  0.000000000E+00  1.731421468E+01  1.731421468E+01  0.000000000E+00  0.00000E+00  9.000E+00
      21    -1     0     0   501   502  0.000000000E+00  0.000000000E+00 -3.283701630E+03  3.283701630E+03  0.000000000E+00  0.00000E+00  9.000E+00
      -6     2     1     2     0   502  9.288269713E+01 -1.871642606E+01 -2.299183821E+03  2.307598693E+03  1.725919576E+02  0.00000E+00  9.000E+00
       6     2     1     2   507     0 -8.707896934E+01 -1.071741944E+01 -8.830788236E+02  9.041030346E+02  1.728481369E+02  0.00000E+00  9.000E+00
     -24     2     3     3     0     0  2.828976579E+01 -6.109852126E+01 -8.814690232E+02  8.877725417E+02  8.135789290E+01  0.00000E+00  9.000E+00
      24     2     4     4     0     0 -1.078287458E+02  2.492412259E+01 -5.067590041E+02  5.253971345E+02  8.360149704E+01  0.00000E+00  9.000E+00
     -11     1     6     6     0     0 -4.545601439E+01  2.975129961E+01 -9.953435690E+01  1.133952260E+02  0.000000000E+00  0.00000E+00  9.000E+00
      12     1     6     6     0     0 -6.237273141E+01 -4.827177015E+00 -4.072246472E+02  4.120019085E+02  5.394796609E-06  0.00000E+00  9.000E+00
      13     1     5     5     0     0 -1.572487164E+01 -1.784438095E+00 -4.308340727E+02  4.311246386E+02  0.000000000E+00  0.00000E+00  9.000E+00
     -14     1     5     5     0     0  4.401463743E+01 -5.931408316E+01 -4.506349505E+02  4.566479031E+02  9.344061824E-06  0.00000E+00  9.000E+00
       5     1     4     4   512     0  2.020897664E+01 -3.520512195E+01 -3.749403025E+02  3.771612338E+02  4.750000000E+00  0.00000E+00  9.000E+00
      -5     1     3     3     0   502  6.459293133E+01  4.238209520E+01 -1.417714798E+03  1.419826152E+03  4.750000000E+00  0.00000E+00  9.000E+00
      21     1     1     2   511   507 -5.803727791E+00  2.943384550E+01 -8.412477060E+01  8.931411728E+01  1.907348633E-06  0.00000E+00  9.000E+00
      21     1     4     4   507   512  5.407998285E-01 -4.364200800E-01 -1.379516918E+00  1.544666265E+00  3.650024150E-08  0.00000E+00  9.000E+00
#rwgt            1          17   12.465098214105858                1     2575894           0         110           0
<weights>
0.13679E+02
</weights>
</event>
<event>
     15  10001 -1.35503E+01  1.21565E+02 -1.00000E+00  1.85904E-01
      -4    -1     0     0     0   501  0.000000000E+00  0.000000000E+00  5.452352482E+02  5.452352482E+02  0.000000000E+00  0.00000E+00  9.000E+00
      21    -1     0     0   501   502  0.000000000E+00  0.000000000E+00 -6.295270369E+02  6.295270369E+02  0.000000000E+00  0.00000E+00  9.000E+00
      -6     2     1     2     0   502  2.475310819E+02  5.477779042E+01 -4.023399654E+02  5.054753918E+02  1.713349969E+02  0.00000E+00  9.000E+00
       6     2     1     2   507     0 -1.848154776E+02  4.936078622E+01 -1.968183316E+01  3.103444887E+02  2.435838236E+02  0.00000E+00  9.000E+00
     -24     2     3     3     0     0  1.928886297E+02  6.626847776E+01 -2.064808623E+02  3.010665951E+02  8.005756411E+01  0.00000E+00  9.000E+00
      24     2     4     4     0     0  4.306960002E+00  3.099219956E+01  5.556830149E+01  1.028031835E+02  8.063245053E+01  0.00000E+00  9.000E+00
     -11     1     6     6     0     0  1.603987668E+01 -2.467709758E+01  2.200381735E+01  3.674785391E+01  0.000000000E+00  0.00000E+00  9.000E+00
      12     1     6     6     0     0 -1.173291668E+01  5.566929714E+01  3.356448414E+01  6.605532964E+01  2.697398305E-06  0.00000E+00  9.000E+00
      13     1     5     5     0     0  8.598183462E+00 -1.526219887E+01 -1.454357805E+01  2.276794096E+01  0.000000000E+00  0.00000E+00  9.000E+00
     -14     1     5     5     0     0  1.842904462E+02  8.153067663E+01 -1.919372842E+02  2.782986541E+02  2.697398305E-06  0.00000E+00  9.000E+00
       5     1     4     4   511     0 -1.509136845E+02  1.986087997E+00 -6.680605153E+01  1.651196406E+02  4.750000000E+00  0.00000E+00  9.000E+00
      -5     1     3     3     0   512  2.731161218E+01 -2.507081807E+00 -1.222160515E+02  1.253456635E+02  4.750000000E+00  0.00000E+00  9.000E+00
      -4     1     1     2     0   507 -6.271560427E+01 -1.041385766E+02  3.377300100E+02  3.589424046E+02  0.000000000E+00  0.00000E+00  9.000E+00
      21     1     4     4   507   511 -3.820875315E+01  1.638249867E+01 -8.444083111E+00  4.242166450E+01  3.371747881E-07  0.00000E+00  9.000E+00
      21     1     3     3   512   502  2.733084003E+01 -8.983605537E+00 -7.364305166E+01  7.906313328E+01  9.536743164E-07  0.00000E+00  9.000E+00
#rwgt            1          17  -12.394132598585843                1     2593775           0       11011           0
<weights>
-.15487E+02
</weights>
</event>
<event>
     15  10001  1.35503E+01  4.95966E+01 -1.00000E+00  1.92502E-01
      -4    -1     0     0     0   501  0.000000000E+00  0.000000000E+00  9.216276270E+01  9.216276270E+01  0.000000000E+00  0.00000E+00  9.000E+00
      21    -1     0     0   507   511  0.000000000E+00  0.000000000E+00 -5.861857212E+02  5.861857212E+02  0.000000000E+00  0.00000E+00  9.000E+00
      -6     2     1     2     0   501 -2.438677288E+01  6.231575532E+01 -1.142460072E+02  2.168071393E+02  1.716834804E+02  0.00000E+00  9.000E+00
       6     2     1     2   507     0  4.345404021E+01 -1.081007446E+02 -2.701356167E+02  3.412041176E+02  1.728379989E+02  0.00000E+00  9.000E+00
     -24     2     3     3     0     0 -6.573386043E+01  3.836607661E+01 -1.186086673E+02  1.622798908E+02  8.046024341E+01  0.00000E+00  9.000E+00
      24     2     4     4     0     0  8.599691224E+01 -4.812688990E+01 -2.112994447E+02  2.467850849E+02  8.089348765E+01  0.00000E+00  9.000E+00
     -11     1     6     6     0     0  7.808626929E+01 -3.541293968E+01 -8.903587780E+01  1.236079661E+02  0.000000000E+00  0.00000E+00  9.000E+00
      12     1     6     6     0     0  7.910642958E+00 -1.271395022E+01 -1.222635669E+02  1.231771188E+02  1.348699152E-06  0.00000E+00  9.000E+00
      13     1     5     5     0     0  4.385044170E+00 -8.388573960E+00 -5.726293252E+01  5.803998817E+01  0.000000000E+00  0.00000E+00  9.000E+00
     -14     1     5     5     0     0 -7.011890460E+01  4.675465057E+01 -6.134573474E+01  1.042399026E+02  4.101908334E-06  0.00000E+00  9.000E+00
       5     1     4     4   513     0 -3.124446665E+01 -4.650735895E+01 -4.350588706E+01  7.109483695E+01  4.750000000E+00  0.00000E+00  9.000E+00
      -5     1     3     3     0   512  3.512036173E+01  2.798204636E+01  8.624957876E+00  4.597159041E+01  4.750000000E+00  0.00000E+00  9.000E+00
      -4     1     1     2     0   511 -1.906726733E+01  4.578498932E+01 -1.096413346E+02  1.203372269E+02  0.000000000E+00  0.00000E+00  9.000E+00
      21     1     3     3   512   501  6.226725817E+00 -4.032367655E+00 -4.262297790E+00  8.555658113E+00  2.598106231E-07  0.00000E+00  9.000E+00
      21     1     4     4   507   513 -1.129840538E+01 -1.346649579E+01 -1.533028496E+01  2.332419580E+01  6.307962682E-07  0.00000E+00  9.000E+00
#rwgt            1          10  0.10458974521280502                1     2599029           0       11110           0
<weights>
0.13830E+02
</weights>
</event>
<event>
     15  10001  1.35503E+01  4.82591E+01 -1.00000E+00  1.54561E-01
      21    -1     0     0   502   501  0.000000000E+00  0.000000000E+00  1.475495185E+02  1.475495185E+02  0.000000000E+00  0.00000E+00  9.000E+00
      -1    -1     0     0     0   502  0.000000000E+00  0.000000000E+00 -1.084122110E+03  1.084122110E+03  0.000000000E+00  0.00000E+00  9.000E+00
      -6     2     1     2     0   501 -1.560376407E+02  1.178396917E+01  8.353514954E+00  2.338488090E+02  1.735767179E+02  0.00000E+00  9.000E+00
       6     2     1     2   507     0  1.411024703E+02 -5.767386576E+01 -5.138102117E+02  5.640142712E+02  1.757127843E+02  0.00000E+00  9.000E+00
     -24     2     3     3     0     0 -9.254647711E+01  5.224857430E+01 -3.970406203E+01  1.386859794E+02  7.976606044E+01  0.00000E+00  9.000E+00
      24     2     4     4     0     0  1.283638448E+02 -7.811985760E+01 -2.795995075E+02  3.282776102E+02  8.372762974E+01  0.00000E+00  9.000E+00
     -11     1     6     6     0     0  9.812517928E+00 -4.496419525E+01 -5.140263735E+01  6.899489466E+01  0.000000000E+00  0.00000E+00  9.000E+00
      12     1     6     6     0     0  1.185513269E+02 -3.315566235E+01 -2.281968701E+02  2.592827155E+02  2.697398305E-06  0.00000E+00  9.000E+00
      13     1     5     5     0     0 -8.018878005E+01  7.256649512E+00 -5.253863223E+00  8.068768485E+01  0.000000000E+00  0.00000E+00  9.000E+00
     -14     1     5     5     0     0 -1.235769707E+01  4.499192479E+01 -3.445019880E+01  5.799829455E+01  1.168007728E-06  0.00000E+00  9.000E+00
       5     1     4     4   512     0  1.115202231E+01  1.641164544E+01 -2.181219209E+02  2.190740619E+02  4.750000000E+00  0.00000E+00  9.000E+00
      -5     1     3     3     0   511 -2.237180476E+01 -3.261399689E+01  1.851732836E+01  4.392749015E+01  4.750000000E+00  0.00000E+00  9.000E+00
      -1     1     1     2     0   507  1.493517039E+01  4.588989659E+01 -4.311158949E+02  4.338085485E+02  0.000000000E+00  0.00000E+00  9.000E+00
      21     1     3     3   511   501 -4.111935877E+01 -7.850608240E+00  2.954024862E+01  5.123533941E+01  1.651812370E-06  0.00000E+00  9.000E+00
      21     1     4     4   507   512  1.586603168E+00  4.034346399E+00 -1.608878338E+01  1.666259917E+01  2.384185791E-07  0.00000E+00  9.000E+00
#rwgt            1          17   35.691101586032318                1     2600305           0       11110           0
<weights>
-.23186E+01
</weights>
</event>
<event>
     14  10001  1.35503E+01  2.19124E+01 -1.00000E+00  7.47226E-01
      21    -1     0     0   511   501  0.000000000E+00  0.000000000E+00  4.485345557E+02  4.485345557E+02  0.000000000E+00  0.00000E+00  9.000E+00
      21    -1     0     0   507   502  0.000000000E+00  0.000000000E+00 -4.270641968E+02  4.270641968E+02  0.000000000E+00  0.00000E+00  9.000E+00
      -6     2     1     2     0   501  5.897915567E+01  1.640230858E+01  3.457099477E+02  3.906044806E+02  1.711984691E+02  0.00000E+00  9.000E+00
       6     2     1     2   507     0 -8.082143278E+01 -1.815368256E+01 -1.385011477E+01  1.738322916E+02  1.521978309E+02  0.00000E+00  9.000E+00
     -24     2     3     3     0     0  2.799525684E+01 -3.245783721E+01  3.085557582E+02  3.216819725E+02  8.022088194E+01  0.00000E+00  9.000E+00
      24     2     4     4     0     0 -5.949408817E+01 -2.512363173E+00  4.344234911E+01  1.099580803E+02  8.159462752E+01  0.00000E+00  9.000E+00
     -11     1     6     6     0     0 -6.700817120E+01 -2.868111655E+01  2.492770548E+01  7.703305754E+01  0.000000000E+00  0.00000E+00  9.000E+00
      12     1     6     6     0     0  7.514083034E+00  2.616875338E+01  1.851464363E+01  3.292502279E+01  4.129530925E-07  0.00000E+00  9.000E+00
      13     1     5     5     0     0  8.844723609E+00 -3.883961145E+01  5.827428476E+01  7.058779510E+01  0.000000000E+00  0.00000E+00  9.000E+00
     -14     1     5     5     0     0  1.915053323E+01  6.381774239E+00  2.502814734E+02  2.510941774E+02  3.814697266E-06  0.00000E+00  9.000E+00
       5     1     4     4   512     0 -1.808898101E+01 -1.490811815E+01 -5.456759596E+01  5.957892454E+01  4.750000000E+00  0.00000E+00  9.000E+00
      -5     1     3     3     0   501  3.098389883E+01  4.886014579E+01  3.715418948E+01  6.892250815E+01  4.750000000E+00  0.00000E+00  9.000E+00
      21     1     1     2   511   502  2.184227712E+01  1.751373975E+00 -3.103894741E+02  3.111619803E+02  3.814697266E-06  0.00000E+00  9.000E+00
      21     1     4     4   507   512 -3.238363610E+00 -7.332012341E-01 -2.724867920E+00  4.295286731E+00  5.161913656E-08  0.00000E+00  9.000E+00
#rwgt            1          17   11.524154397469076                1     2605190           0         110           0
<weights>
0.27614E+02
</weights>
</event>
<event>
     15  10001  1.35503E+01  9.48513E+00 -1.00000E+00  5.72937E-01
      -1    -1     0     0     0   511  0.000000000E+00  0.000000000E+00  3.771528968E+01  3.771528968E+01  0.000000000E+00  0.00000E+00  9.000E+00
       1    -1     0     0   507     0  0.000000000E+00  0.000000000E+00 -1.016682002E+03  1.016682002E+03  0.000000000E+00  0.00000E+00  9.000E+00
      -6     2     1     2     0   501  1.116337356E+01 -5.064496836E+01 -3.492628961E+02  3.923903873E+02  1.711610696E+02  0.00000E+00  9.000E+00
       6     2     1     2   507     0 -1.757931538E+01  4.365903127E+01 -4.735622689E+02  5.055775260E+02  1.706817767E+02  0.00000E+00  9.000E+00
     -24     2     3     3     0     0  3.863643259E+01 -3.090123403E+01 -8.685934093E+01  1.277373304E+02  7.952748131E+01  0.00000E+00  9.000E+00
      24     2     4     4     0     0 -4.424837729E+01  4.048934724E+01 -4.575742535E+02  4.684183420E+02  8.027602102E+01  0.00000E+00  9.000E+00
     -11     1     6     6     0     0 -6.336853407E+01  2.714585341E+01 -2.432645179E+02  2.528440115E+02  0.000000000E+00  0.00000E+00  9.000E+00
      12     1     6     6     0     0  1.912015679E+01  1.334349383E+01 -2.143097355E+02  2.155743305E+02  2.697398305E-06  0.00000E+00  9.000E+00
      13     1     5     5     0     0  5.516705778E+01 -4.117499816E+01 -4.692077424E+01  8.330872579E+01  0.000000000E+00  0.00000E+00  9.000E+00
     -14     1     5     5     0     0 -1.653062519E+01  1.027376413E+01 -3.993856670E+01  4.442860462E+01  1.348699152E-06  0.00000E+00  9.000E+00
       5     1     4     4   512     0  2.728958516E+01  7.100138106E-01 -1.871317834E+01  3.343607515E+01  4.750000000E+00  0.00000E+00  9.000E+00
      -5     1     3     3     0   513 -2.579180692E+01 -1.743120021E+01 -2.451500665E+02  2.471642807E+02  4.750000000E+00  0.00000E+00  9.000E+00
      21     1     4     4   507   512 -6.205232541E-01  2.459670219E+00  2.725162881E+00  3.723108839E+00  4.740349567E-07  0.00000E+00  9.000E+00
      21     1     1     2   501   511  6.415941827E+00  6.985937093E+00 -1.561415473E+02  1.564293783E+02  3.303624740E-06  0.00000E+00  9.000E+00
      21     1     3     3   513   501 -1.681252118E+00 -2.312534125E+00 -1.725348857E+01  1.748877614E+01  0.000000000E+00  0.00000E+00  9.000E+00
#rwgt            1           2  0.64805950170022242                1     2615668           0      100111           0
<weights>
0.16141E+02
</weights>
</event>
<event>
     15  10001 -1.35503E+01  2.90131E+01 -1.00000E+00  3.36264E-01
      21    -1     0     0   502   511  0.000000000E+00  0.000000000E+00  1.816321492E+02  1.816321492E+02  0.000000000E+00  0.00000E+00  9.000E+00
      21    -1     0     0   507   502  0.000000000E+00  0.000000000E+00 -9.107889873E+02  9.107889873E+02  0.000000000E+00  0.00000E+00  9.000E+00
      -6     2     1     2     0   501 -2.795778047E+01  3.741929137E+01  5.875300612E+01  1.883249524E+02  1.727209632E+02  0.00000E+00  9.000E+00
       6     2     1     2   507     0  6.569411066E+00 -1.781584935E+01 -8.327693219E+02  8.506721257E+02  1.725623376E+02  0.00000E+00  9.000E+00
     -24     2     3     3     0     0 -1.432096332E+01  6.038386346E+01  9.623040097E+01  1.417692601E+02  8.358787049E+01  0.00000E+00  9.000E+00
      24     2     4     4     0     0 -2.613637501E+01 -7.093650580E+01 -5.113162370E+02  5.228550555E+02  7.885440277E+01  0.00000E+00  9.000E+00
     -11     1     6     6     0     0 -2.440120619E+01  1.509736924E+00 -4.760700334E+01  5.351751990E+01  0.000000000E+00  0.00000E+00  9.000E+00
      12     1     6     6     0     0 -1.735168819E+00 -7.244624273E+01 -4.637092337E+02  4.693375356E+02  1.078959322E-05  0.00000E+00  9.000E+00
      13     1     5     5     0     0  2.526878892E+01  4.240636663E+01  1.852383701E+01  5.272517579E+01  0.000000000E+00  0.00000E+00  9.000E+00
     -14     1     5     5     0     0 -3.958975224E+01  1.797749682E+01  7.770656396E+01  8.904408435E+01  7.200083194E-06  0.00000E+00  9.000E+00
       5     1     4     4   512     0  2.367441852E+01  3.318072180E+01 -2.395357658E+02  2.430254801E+02  4.750000000E+00  0.00000E+00  9.000E+00
      -5     1     3     3     0   514 -9.655693366E+00 -1.898451704E+01 -3.173831422E+01  3.851658592E+01  4.750000000E+00  0.00000E+00  9.000E+00
      21     1     1     2   501   511  2.138836940E+01 -1.960344202E+01  4.485947758E+01  5.342405838E+01  1.507891493E-06  0.00000E+00  9.000E+00
      21     1     4     4   507   512  9.031367550E+00  1.993993464E+01 -8.191731906E+01  8.479159012E+01  1.348699152E-06  0.00000E+00  9.000E+00
      21     1     3     3   514   501 -3.981123782E+00 -3.980055048E+00 -5.739080630E+00  8.039106370E+00  2.795705652E-07  0.00000E+00  9.000E+00
#rwgt            1          17  -30.985746916522235                1     2618624           0       11011           0
<weights>
-.11309E+02
</weights>
</event>
<event>
     15  10001 -1.35503E+01  8.31500E+01 -1.00000E+00  2.33333E-01
      21    -1     0     0   512   501  0.000000000E+00  0.000000000E+00  4.504573892E+02  4.504573892E+02  0.000000000E+00  0.00000E+00  9.000E+00
      21    -1     0     0   507   502  0.000000000E+00  0.000000000E+00 -9.066456471E+01  9.066456471E+01  0.000000000E+00  0.00000E+00  9.000E+00
      -6     2     1     2     0   501  9.467524621E+00  3.526738150E+01  2.025811339E+02  2.688598373E+02  1.729539652E+02  0.00000E+00  9.000E+00
       6     2     1     2   507     0  2.311905413E+01  4.123128277E+01  6.207319929E+01  1.459083938E+02  1.232950444E+02  0.00000E+00  9.000E+00
     -24     2     3     3     0     0 -1.405474139E+01  8.276258345E+01  1.067318495E+02  1.589343791E+02  8.259096919E+01  0.00000E+00  9.000E+00
      24     2     4     4     0     0  3.062182130E+01  3.255727248E+01  7.062902376E+01  1.170732564E+02  8.197570640E+01  0.00000E+00  9.000E+00
     -11     1     6     6     0     0  2.607770614E+01  5.303086518E+01  7.516720120E+01  9.561604236E+01  0.000000000E+00  0.00000E+00  9.000E+00
      12     1     6     6     0     0  4.544115159E+00 -2.047359270E+01 -4.538177439E+00  2.145721406E+01  1.460009660E-07  0.00000E+00  9.000E+00
      13     1     5     5     0     0  3.225902793E+01  1.916107618E+01  4.706750582E+01  6.019253964E+01  0.000000000E+00  0.00000E+00  9.000E+00
     -14     1     5     5     0     0 -4.631376933E+01  6.360150727E+01  5.966434365E+01  9.874183946E+01  1.907348633E-06  0.00000E+00  9.000E+00
       5     1     4     4   511     0 -3.593263930E+00  5.355447002E+00  8.109789675E+00  1.139840107E+01  4.750000000E+00  0.00000E+00  9.000E+00
      -5     1     3     3     0   513  1.837610904E+01 -3.319020382E+01  6.237246414E+01  7.315844309E+01  4.750000000E+00  0.00000E+00  9.000E+00
      21     1     1     2   512   502 -3.258657875E+01 -7.649866427E+01  9.513849133E+01  1.263537229E+02  2.697398305E-06  0.00000E+00  9.000E+00
      21     1     4     4   507   511 -3.909503235E+00  3.318563287E+00 -1.666561415E+01  1.743673630E+01  8.920806376E-07  0.00000E+00  9.000E+00
      21     1     3     3   513   501  5.146156975E+00 -1.430499813E+01  3.347682026E+01  3.676701508E+01  6.743495762E-07  0.00000E+00  9.000E+00
#rwgt            1          17  -50.182710263436114                1     2623261           0       11011           0
<weights>
-.11565E+02
</weights>
</event>
<event>
     15  10001 -1.35503E+01  1.02861E+02 -1.00000E+00  1.86819E-01
      21    -1     0     0   502   511  0.000000000E+00  0.000000000E+00  3.484019096E+02  3.484019096E+02  0.000000000E+00  0.00000E+00  9.000E+00
      21    -1     0     0   507   502  0.000000000E+00  0.000000000E+00 -1.771299602E+03  1.771299602E+03  0.000000000E+00  0.00000E+00  9.000E+00
      -6     2     1     2     0   501  3.272906353E+02 -2.223470659E+02  2.656984377E+01  4.319117401E+02  1.711269032E+02  0.00000E+00  9.000E+00
       6     2     1     2   507     0 -2.542728085E+02  2.947954550E+02 -1.509620423E+03  1.568631297E+03  1.734684504E+02  0.00000E+00  9.000E+00
     -24     2     3     3     0     0  2.211673240E+02 -7.159904946E+01  3.981176367E+00  2.454597131E+02  7.869696246E+01  0.00000E+00  9.000E+00
      24     2     4     4     0     0 -8.944189763E+01  1.937800613E+02 -7.040377732E+02  7.400506499E+02  8.034434045E+01  0.00000E+00  9.000E+00
     -11     1     6     6     0     0 -1.230049294E+01  1.200786667E+02 -4.014813423E+02  4.192343694E+02  0.000000000E+00  0.00000E+00  9.000E+00
      12     1     6     6     0     0 -7.714140469E+01  7.370139458E+01 -3.025564310E+02  3.208162805E+02  7.629394531E-06  0.00000E+00  9.000E+00
      13     1     5     5     0     0  4.744836575E+01 -4.351699984E+01 -2.100164168E+01  6.772108712E+01  0.000000000E+00  0.00000E+00  9.000E+00
     -14     1     5     5     0     0  1.737189583E+02 -2.808204962E+01  2.498281804E+01  1.777386260E+02  6.106495130E-06  0.00000E+00  9.000E+00
       5     1     4     4   514     0 -1.439323864E+02  8.783349423E+01 -7.205285463E+02  7.400102722E+02  4.750000000E+00  0.00000E+00  9.000E+00
      -5     1     3     3     0   512  6.495858361E+01 -9.248405165E+01  2.127931144E+01  1.151012119E+02  4.750000000E+00  0.00000E+00  9.000E+00
      21     1     1     2   501   511 -7.301782671E+01 -7.244838908E+01  6.015288712E+01  1.191584740E+02  4.573661350E-06  0.00000E+00  9.000E+00
      21     1     3     3   512   501  4.116472761E+01 -5.826396484E+01  1.309355959E+00  7.135081507E+01  2.301397393E-06  0.00000E+00  9.000E+00
      21     1     4     4   507   514 -2.089852457E+01  1.318189955E+01 -8.505410337E+01  8.857037487E+01  9.536743164E-07  0.00000E+00  9.000E+00
#rwgt            1          17  -35.238185978539299                1     2626079           0       11110           0
<weights>
-.14098E+02
</weights>
</event>
<event>
     14  10001  1.35503E+01  3.77921E+01 -1.00000E+00  7.10780E-01
       1    -1     0     0   512     0  0.000000000E+00  0.000000000E+00  1.081430469E+03  1.081430469E+03  0.000000000E+00  0.00000E+00  9.000E+00
      -1    -1     0     0     0   502  0.000000000E+00  0.000000000E+00 -1.023834902E+02  1.023834902E+02  0.000000000E+00  0.00000E+00  9.000E+00
      -6     2     1     2     0   502 -6.626914719E+01  4.362471051E+01  9.394481511E+02  9.584054885E+02  1.722891076E+02  0.00000E+00  9.000E+00
       6     2     1     2   507     0  2.847755284E+01 -4.342797580E+01  5.119711834E+01  1.858766655E+02  1.709737692E+02  0.00000E+00  9.000E+00
     -24     2     3     3     0     0 -1.000002382E+02  5.785037299E+00  5.068578581E+02  5.228293741E+02  8.007591269E+01  0.00000E+00  9.000E+00
      24     2     4     4     0     0 -1.250882736E+01 -8.424921029E+01  4.533372956E+01  1.259373735E+02  8.093623911E+01  0.00000E+00  9.000E+00
     -11     1     6     6     0     0 -3.625488183E+00 -1.426623067E+00 -1.981122740E+01  2.019069462E+01  0.000000000E+00  0.00000E+00  9.000E+00
      12     1     6     6     0     0 -8.883339177E+00 -8.282258722E+01  6.514495696E+01  1.057466788E+02  2.697398305E-06  0.00000E+00  9.000E+00
      13     1     5     5     0     0 -8.919117516E+01  3.545860724E+01  4.032477103E+02  4.145130811E+02  0.000000000E+00  0.00000E+00  9.000E+00
     -14     1     5     5     0     0 -1.080906308E+01 -2.967356994E+01  1.036101478E+02  1.083162930E+02  1.907348633E-06  0.00000E+00  9.000E+00
       5     1     4     4   511     0  3.945976928E+01  3.710416918E+01  8.640549865E+00  5.505464889E+01  4.750000000E+00  0.00000E+00  9.000E+00
      -5     1     3     3     0   502  3.373109105E+01  3.783967321E+01  4.325902930E+02  4.355761144E+02  4.750000000E+00  0.00000E+00  9.000E+00
      21     1     1     2   512   507  3.779159435E+01 -1.967347135E-01 -1.159829021E+01  3.953180547E+01  4.460403188E-07  0.00000E+00  9.000E+00
      21     1     4     4   507   511  1.526610919E+00  3.717065308E+00 -2.777161084E+00  4.884643190E+00  1.519626234E-07  0.00000E+00  9.000E+00
#rwgt            1           4  0.15480878533605671                1     2631137           0         110           0
<weights>
0.15348E+02
</weights>
</event>
<event>
     13  10001  1.35503E+01  8.04650E+01 -1.00000E+00  1.28228E-01
      21    -1     0     0   502   501  0.000000000E+00  0.000000000E+00  1.476798588E+02  1.476798588E+02  0.000000000E+00  0.00000E+00  9.000E+00
      21    -1     0     0   511   502  0.000000000E+00  0.000000000E+00 -9.205612714E+02  9.205612714E+02  0.000000000E+00  0.00000E+00  9.000E+00
      -6     2     1     2     0   501 -9.377940282E+01  8.408693559E+01 -3.545951370E+02  4.142161159E+02  1.731244939E+02  0.00000E+00  9.000E+00
       6     2     1     2   507     0  2.480306695E+01 -4.265160619E+01  4.417804552E+01  1.846127545E+02  1.723247451E+02  0.00000E+00  9.000E+00
     -24     2     3     3     0     0 -9.020686376E+01  1.966500763E+01 -1.245636680E+02  1.752600801E+02  8.170677751E+01  0.00000E+00  9.000E+00
      24     2     4     4     0     0  6.106110195E+01 -5.701562487E+01  7.150855866E+01  1.367536949E+02  8.129489195E+01  0.00000E+00  9.000E+00
     -11     1     6     6     0     0  5.364767879E-01 -7.351273923E+00  5.657024829E+01  5.704841827E+01  0.000000000E+00  0.00000E+00  9.000E+00
      12     1     6     6     0     0  6.052462516E+01 -4.966435095E+01  1.493831036E+01  7.970527663E+01  8.760057960E-07  0.00000E+00  9.000E+00
      13     1     5     5     0     0 -7.289114531E+01  1.852831934E+01 -1.353400028E+02  1.548332459E+02  0.000000000E+00  0.00000E+00  9.000E+00
     -14     1     5     5     0     0 -1.731571845E+01  1.136688291E+00  1.077633474E+01  2.042683422E+01  4.768371582E-07  0.00000E+00  9.000E+00
       5     1     4     4   507     0 -3.625803499E+01  1.436401868E+01 -2.733051313E+01  4.785905956E+01  4.750000000E+00  0.00000E+00  9.000E+00
      -5     1     3     3     0   501 -3.572539061E+00  6.442192796E+01 -2.300314689E+02  2.389560358E+02  4.750000000E+00  0.00000E+00  9.000E+00
      21     1     1     2   511   507  6.897633586E+01 -4.143532940E+01 -4.624643212E+02  4.694122599E+02  0.000000000E+00  0.00000E+00  9.000E+00
#rwgt            2         113   4.5886656444831413                1     2632972           0           1           0
<weights>
0.13550E+02
</weights>
</event>
<event>
     14  10001  1.35503E+01  3.53960E+01 -1.00000E+00  7.47572E-01
      21    -1     0     0   512   501  0.000000000E+00  0.000000000E+00  9.283492711E+01  9.283492711E+01  0.000000000E+00  0.00000E+00  9.000E+00
      21    -1     0     0   507   502  0.000000000E+00  0.000000000E+00 -2.063437842E+03  2.063437842E+03  0.000000000E+00  0.00000E+00  9.000E+00
      -6     2     1     2     0   501  8.130369557E+01 -1.383087101E+02 -8.335988195E+01  2.500069171E+02  1.726702015E+02  0.00000E+00  9.000E+00
       6     2     1     2   507     0 -4.601441142E+01  1.410555797E+02 -1.736225773E+03  1.751155918E+03  1.733583315E+02  0.00000E+00  9.000E+00
     -24     2     3     3     0     0 -6.025586990E+00 -1.186559237E+02 -6.332510553E+01  1.581560033E+02  8.299226744E+01  0.00000E+00  9.000E+00
      24     2     4     4     0     0 -2.076302389E+01  1.685176584E+02 -1.389151952E+03  1.401763295E+03  7.979903199E+01  0.00000E+00  9.000E+00
     -11     1     6     6     0     0  2.150755604E+01  9.252266161E+01 -8.941037764E+02  8.991354630E+02  0.000000000E+00  0.00000E+00  9.000E+00
      12     1     6     6     0     0 -4.227057993E+01  7.599499674E+01 -4.950481756E+02  5.026278321E+02  9.344061824E-06  0.00000E+00  9.000E+00
      13     1     5     5     0     0  1.370732496E+01 -9.231089549E+01 -7.852498716E+00  9.365283722E+01  0.000000000E+00  0.00000E+00  9.000E+00
     -14     1     5     5     0     0 -1.973291195E+01 -2.634502823E+01 -5.547260682E+01  6.450316607E+01  1.168007728E-06  0.00000E+00  9.000E+00
       5     1     4     4   513     0 -8.389520543E+00 -5.110282155E+00 -1.416288094E+02  1.420485171E+02  4.750000000E+00  0.00000E+00  9.000E+00
      -5     1     3     3     0   501  8.732928256E+01 -1.965278638E+01 -2.003477642E+01  9.185091383E+01  4.750000000E+00  0.00000E+00  9.000E+00
      21     1     1     2   512   502 -3.528928416E+01 -2.746869628E+00 -1.510172596E+02  1.551099338E+02  2.697398305E-06  0.00000E+00  9.000E+00
      21     1     4     4   507   513 -1.686186698E+01 -2.235179647E+01 -2.054450118E+02  2.073441058E+02  2.697398305E-06  0.00000E+00  9.000E+00
#rwgt            1          17   50.902324015994061                1     2635379           0         110           0
<weights>
0.14892E+02
</weights>
</event>
<event>
     15  10001  1.35503E+01  1.82348E+00 -1.00000E+00  2.06512E-01
      -2    -1     0     0     0   501  0.000000000E+00  0.000000000E+00  1.973671553E+01  1.973671553E+01  0.000000000E+00  0.00000E+00  9.000E+00
       2    -1     0     0   512     0  0.000000000E+00  0.000000000E+00 -1.667393039E+03  1.667393039E+03  0.000000000E+00  0.00000E+00  9.000E+00
      -6     2     1     2     0   501 -3.587200538E+01  1.880227529E+01 -7.084804322E+02  7.302764050E+02  1.723913531E+02  0.00000E+00  9.000E+00
       6     2     1     2   507     0  3.689633366E+01 -2.031086204E+01 -8.950352791E+02  9.126750887E+02  1.735332710E+02  0.00000E+00  9.000E+00
     -24     2     3     3     0     0  6.917967961E+00 -2.583271210E+01 -2.062004961E+02  2.231727897E+02  8.106948978E+01  0.00000E+00  9.000E+00
      24     2     4     4     0     0 -9.160332500E+00  2.030087984E+01 -7.579859866E+02  7.622458444E+02  7.733003376E+01  0.00000E+00  9.000E+00
     -11     1     6     6     0     0 -2.178169689E+01  2.005607565E+01 -1.038608978E+02  1.079989564E+02  0.000000000E+00  0.00000E+00  9.000E+00
      12     1     6     6     0     0  1.262136439E+01  2.448041880E-01 -6.541250887E+02  6.542468880E+02  7.629394531E-06  0.00000E+00  9.000E+00
      13     1     5     5     0     0  1.657914795E+01  1.974517399E+01 -2.440221329E+01  3.549940924E+01  0.000000000E+00  0.00000E+00  9.000E+00
     -14     1     5     5     0     0 -9.661179987E+00 -4.557788610E+01 -1.817982828E+02  1.876733804E+02  0.000000000E+00  0.00000E+00  9.000E+00
       5     1     4     4   513     0  4.495153988E+01 -3.831960902E+01 -1.284280199E+02  1.414402777E+02  4.750000000E+00  0.00000E+00  9.000E+00
      -5     1     3     3     0   511 -4.123603378E+01  4.593973426E+01 -5.007480101E+02  5.045611972E+02  4.750000000E+00  0.00000E+00  9.000E+00
      21     1     3     3   511   501 -1.553939555E+00 -1.304746867E+00 -1.531926039E+00  2.542418124E+00  1.381876841E-07  0.00000E+00  9.000E+00
      21     1     1     2   512   507 -1.024328284E+00  1.508586757E+00 -4.414061227E+01  4.417826087E+01  9.536743164E-07  0.00000E+00  9.000E+00
      21     1     4     4   507   513  1.105126279E+00 -2.292132864E+00 -8.621272654E+00  8.988966533E+00  1.685873940E-07  0.00000E+00  9.000E+00
#rwgt            1           6   4.9022338388238156                1     2641623           0      110110           0
<weights>
0.20057E+02
</weights>
</event>
<event>
     14  10001  1.35503E+01  2.91097E+01 -1.00000E+00  7.45012E-01
      21    -1     0     0   502   512  0.000000000E+00  0.000000000E+00  1.689332425E+02  1.689332425E+02  0.000000000E+00  0.00000E+00  9.000E+00
      21    -1     0     0   507   502  0.000000000E+00  0.000000000E+00 -4.648911541E+02  4.648911541E+02  0.000000000E+00  0.00000E+00  9.000E+00
      -6     2     1     2     0   501 -6.842977650E+00 -2.786891139E+01  9.048178680E+01  1.973378879E+02  1.730080509E+02  0.00000E+00  9.000E+00
       6     2     1     2   507     0  1.432677543E+01 -2.622924949E-01 -3.442356405E+02  3.852170795E+02  1.723040826E+02  0.00000E+00  9.000E+00
     -24     2     3     3     0     0 -2.936625814E+01  4.069507377E+01  8.117992151E+01  1.244173460E+02  7.981873334E+01  0.00000E+00  9.000E+00
      24     2     4     4     0     0 -2.543981706E+01 -1.319983314E+01 -8.038211641E+01  1.169579315E+02  7.997782951E+01  0.00000E+00  9.000E+00
     -11     1     6     6     0     0 -4.889191434E+01  8.887149228E+00 -3.296716725E+01  5.963417498E+01  0.000000000E+00  0.00000E+00  9.000E+00
      12     1     6     6     0     0  2.345209728E+01 -2.208698237E+01 -4.741494916E+01  5.732375651E+01  1.168007728E-06  0.00000E+00  9.000E+00
      13     1     5     5     0     0  1.687468751E+01 -6.495616578E-01 -5.561383579E+00  1.777936996E+01  0.000000000E+00  0.00000E+00  9.000E+00
     -14     1     5     5     0     0 -4.624094565E+01  4.134463543E+01  8.674130509E+01  1.066379761E+02  2.336015456E-06  0.00000E+00  9.000E+00
       5     1     4     4   511     0  2.204442485E+01  1.801168713E+01 -1.877227316E+02  1.899283128E+02  4.750000000E+00  0.00000E+00  9.000E+00
      -5     1     3     3     0   501  2.252328049E+01 -6.856398516E+01  9.301865288E+00  7.292054185E+01  4.750000000E+00  0.00000E+00  9.000E+00
      21     1     1     2   501   512 -7.483797776E+00  2.813120388E+01 -4.220405798E+01  5.126942920E+01  4.768371582E-07  0.00000E+00  9.000E+00
      21     1     4     4   507   511  1.772216764E+01 -5.074146480E+00 -7.613079246E+01  7.833083524E+01  9.536743164E-07  0.00000E+00  9.000E+00
#rwgt            1          17   1.1520799879414856                1     2646480           0         110           0
<weights>
0.83294E+01
</weights>
</event>
<event>
     15  10001  1.35503E+01  2.49543E+01 -1.00000E+00  1.22202E-01
      21    -1     0     0   512   501  0.000000000E+00  0.000000000E+00  1.459219252E+03  1.459219252E+03  0.000000000E+00  0.00000E+00  9.000E+00
      21    -1     0     0   507   502  0.000000000E+00  0.000000000E+00 -5.778162323E+01  5.778162323E+01  0.000000000E+00  0.00000E+00  9.000E+00
      -6     2     1     2     0   501 -8.119254283E+01 -1.690329481E+02  9.478694079E+02  9.814986466E+02  1.723914506E+02  0.00000E+00  9.000E+00
       6     2     1     2   507     0  6.382741126E+01  1.511117807E+02  3.173030446E+02  3.969709531E+02  1.731935530E+02  0.00000E+00  9.000E+00
     -24     2     3     3     0     0 -5.991360308E+01 -1.379010431E+02  5.391005833E+02  5.655604196E+02  8.138065953E+01  0.00000E+00  9.000E+00
      24     2     4     4     0     0 -4.330826011E+00  9.769587072E+01  2.682416880E+02  2.970146980E+02  8.185895454E+01  0.00000E+00  9.000E+00
     -11     1     6     6     0     0  1.430495865E+01  3.064603073E+01  2.019565235E+01  3.939131142E+01  0.000000000E+00  0.00000E+00  9.000E+00
      12     1     6     6     0     0 -1.863578466E+01  6.704983999E+01  2.480460356E+02  2.576233866E+02  7.136645101E-06  0.00000E+00  9.000E+00
      13     1     5     5     0     0 -5.189545564E+01 -3.487441130E+01  2.737094016E+02  2.807600388E+02  0.000000000E+00  0.00000E+00  9.000E+00
     -14     1     5     5     0     0 -8.018147441E+00 -1.030266318E+02  2.653911818E+02  2.848003808E+02  3.814697266E-06  0.00000E+00  9.000E+00
       5     1     4     4   514     0  6.726294228E+01  5.110355265E+01  4.761815655E+01  9.708721765E+01  4.750000000E+00  0.00000E+00  9.000E+00
      -5     1     3     3     0   511 -2.054481905E+00 -4.517618395E+01  1.696894515E+02  1.756763528E+02  4.750000000E+00  0.00000E+00  9.000E+00
      21     1     3     3   511   501 -1.922445784E+01  1.404427889E+01  2.390793731E+02  2.402618742E+02  2.697398305E-06  0.00000E+00  9.000E+00
      21     1     1     2   512   502  1.736513157E+01  1.792116743E+01  1.362651759E+02  1.385312751E+02  0.000000000E+00  0.00000E+00  9.000E+00
      21     1     4     4   507   514  8.952949889E-01  2.312357326E+00  1.443200026E+00  2.869037440E+00  7.598131170E-08  0.00000E+00  9.000E+00
#rwgt            1          17   55.002190002609346                1     2653112           0      110110           0
<weights>
0.12542E+02
</weights>
</event>
<event>
     14  10001  1.35503E+01  3.14713E+01 -1.00000E+00  2.56705E-01
      21    -1     0     0   512   501  0.000000000E+00  0.000000000E+00  7.595641869E+01  7.595641869E+01  0.000000000E+00  0.00000E+00  9.000E+00
      21    -1     0     0   501   502  0.000000000E+00  0.000000000E+00 -1.249704681E+03  1.249704681E+03  0.000000000E+00  0.00000E+00  9.000E+00
      -6     2     1     2     0   502  8.990633635E+01  1.869977586E+02 -6.788613554E+02  7.304640141E+02  1.722603405E+02  0.00000E+00  9.000E+00
       6     2     1     2   507     0 -7.538283618E+01 -1.590780130E+02 -2.595828886E+02  3.577977906E+02  1.721847749E+02  0.00000E+00  9.000E+00
     -24     2     3     3     0     0  1.948583734E+01  1.396168446E+02 -5.651884450E+02  5.879668101E+02  7.996518226E+01  0.00000E+00  9.000E+00
      24     2     4     4     0     0 -2.030948509E+01 -1.129928215E+02 -2.496144687E+02  2.851420904E+02  7.628090109E+01  0.00000E+00  9.000E+00
     -11     1     6     6     0     0  7.513979671E+00  2.415963789E+00  8.786214097E-01  7.941583413E+00  0.000000000E+00  0.00000E+00  9.000E+00
      12     1     6     6     0     0 -2.782346476E+01 -1.154087853E+02 -2.504930901E+02  2.772005070E+02  0.000000000E+00  0.00000E+00  9.000E+00
      13     1     5     5     0     0  1.988320563E+01  1.345238786E+02 -3.959393569E+02  4.186406455E+02  0.000000000E+00  0.00000E+00  9.000E+00
     -14     1     5     5     0     0 -3.973682929E-01  5.092965999E+00 -1.692490881E+02  1.693261646E+02  3.814697266E-06  0.00000E+00  9.000E+00
       5     1     4     4   507     0 -5.507335109E+01 -4.608519152E+01 -9.968419964E+00  7.265570022E+01  4.750000000E+00  0.00000E+00  9.000E+00
      -5     1     3     3     0   511  5.984939556E+01  3.914642454E+01 -8.761670586E+01  1.131973602E+02  4.750000000E+00  0.00000E+00  9.000E+00
      21     1     1     2   512   507 -1.452350016E+01 -2.791974562E+01 -2.353040187E+02  2.373992954E+02  2.697398305E-06  0.00000E+00  9.000E+00
      21     1     3     3   511   502  1.057110345E+01  8.234489519E+00 -2.605620462E+01  2.929984377E+01  3.371747881E-07  0.00000E+00  9.000E+00
#rwgt            1          17   11.646115186831707                1     2659803           0         111           0
<weights>
0.13221E+02
</weights>
</event>
<event>
     15  10001  1.35503E+01  1.71431E+02 -1.00000E+00  2.59432E-01
      21    -1     0     0   502   501  0.000000000E+00  0.000000000E+00  9.057024656E+01  9.057024656E+01  0.000000000E+00  0.00000E+00  9.000E+00
       2    -1     0     0   507     0  0.000000000E+00  0.000000000E+00 -2.213906110E+03  2.213906110E+03  0.000000000E+00  0.00000E+00  9.000E+00
      -6     2     1     2     0   501 -9.678551667E+01 -1.134811377E+02 -2.109768063E+02  3.115505535E+02  1.740894303E+02  0.00000E+00  9.000E+00
       6     2     1     2   507     0 -4.235851679E+01  1.334302512E+01 -1.817828684E+02  2.538793262E+02  1.715733685E+02  0.00000E+00  9.000E+00
     -24     2     3     3     0     0 -7.300382482E+00 -2.078141571E+01 -1.449863791E+02  1.658402398E+02  7.743882864E+01  0.00000E+00  9.000E+00
      24     2     4     4     0     0 -3.150565623E+01  7.102693891E+01 -8.981887853E+01  1.437233690E+02  8.094160501E+01  0.00000E+00  9.000E+00
     -11     1     6     6     0     0 -7.978009630E+00  6.071063134E+01 -1.283116544E+01  6.256251435E+01  0.000000000E+00  0.00000E+00  9.000E+00
      12     1     6     6     0     0 -2.352764660E+01  1.031630758E+01 -7.698771309E+01  8.116085462E+01  9.536743164E-07  0.00000E+00  9.000E+00
      13     1     5     5     0     0 -3.176632967E+01 -1.083136575E+01 -1.323908906E+02  1.365787908E+02  0.000000000E+00  0.00000E+00  9.000E+00
     -14     1     5     5     0     0  2.446594719E+01 -9.950049967E+00 -1.259548853E+01  2.926144899E+01  7.539457465E-07  0.00000E+00  9.000E+00
       5     1     4     4   512     0 -1.332810706E+01 -5.257341514E+01 -8.690596504E+01  1.025515074E+02  4.750000000E+00  0.00000E+00  9.000E+00
      -5     1     3     3     0   511 -8.260992642E+01 -9.055820920E+01 -6.148178996E+01  1.372142930E+02  4.750000000E+00  0.00000E+00  9.000E+00
       2     1     1     2   502     0  1.391440335E+02  1.001381126E+02 -1.730576188E+03  1.739046477E+03  0.000000000E+00  0.00000E+00  9.000E+00
      21     1     4     4   507   512  2.475246504E+00 -5.110498646E+00 -5.058024823E+00  7.604449801E+00  2.528810911E-07  0.00000E+00  9.000E+00
      21     1     3     3   511   501 -6.875207760E+00 -2.141512831E+00 -4.508637264E+00  8.496020770E+00  2.064765462E-07  0.00000E+00  9.000E+00
#rwgt            1          17   20.266437150797884                1     2668799           0       11011           0
<weights>
0.13986E+02
</weights>
</event>
<event>
     14  10001 -1.35503E+01  2.43794E+01 -1.00000E+00  7.51827E-01
      21    -1     0     0   511   501  0.000000000E+00  0.000000000E+00  4.501982619E+02  4.501982619E+02  0.000000000E+00  0.00000E+00  9.000E+00
      21    -1     0     0   501   502  0.000000000E+00  0.000000000E+00 -1.013602031E+03  1.013602031E+03  0.000000000E+00  0.00000E+00  9.000E+00
      -6     2     1     2     0   502  2.255022517E+01  2.136783679E+01 -4.530226390E+02  4.857523461E+02  1.725129942E+02  0.00000E+00  9.000E+00
       6     2     1     2   507     0 -1.296250693E+01 -4.378279017E+01 -5.282673588E+02  5.594511787E+02  1.784215786E+02  0.00000E+00  9.000E+00
     -24     2     3     3     0     0 -1.156805866E+00  7.060478527E+01 -1.628917659E+02  1.904816458E+02  6.901562206E+01  0.00000E+00  9.000E+00
      24     2     4     4     0     0  1.362194745E+01 -6.194448691E+01 -1.599814929E+02  1.896764926E+02  7.975222171E+01  0.00000E+00  9.000E+00
     -11     1     6     6     0     0  4.282497804E+01 -1.631288304E+01 -9.169988225E+01  1.025132055E+02  0.000000000E+00  0.00000E+00  9.000E+00
      12     1     6     6     0     0 -2.920303059E+01 -4.563160387E+01 -6.828161067E+01  8.716328713E+01  1.348699152E-06  0.00000E+00  9.000E+00
      13     1     5     5     0     0  1.213751155E+01  4.300821222E+01 -1.512475396E+02  1.577112670E+02  0.000000000E+00  0.00000E+00  9.000E+00
     -14     1     5     5     0     0 -1.329431741E+01  2.759657305E+01 -1.164422627E+01  3.277037878E+01  1.143415337E-06  0.00000E+00  9.000E+00
       5     1     4     4   513     0 -2.299603888E+01  1.784045683E+01 -3.344117815E+02  3.357095498E+02  4.750000000E+00  0.00000E+00  9.000E+00
      -5     1     3     3     0   502  2.370703104E+01 -4.923694847E+01 -2.901308731E+02  2.952707003E+02  4.750000000E+00  0.00000E+00  9.000E+00
      21     1     1     2   511   507 -9.587718244E+00  2.241495338E+01  4.178862285E+02  4.185967683E+02  5.394796609E-06  0.00000E+00  9.000E+00
      21     1     4     4   507   513 -3.588415508E+00  3.212399123E-01 -3.387408437E+01  3.406513632E+01  4.768371582E-07  0.00000E+00  9.000E+00
#rwgt            1          17  -21.108202816054284                1     2675742           0         110           0
<weights>
-.14931E+02
</weights>
</event>
<event>
     15  10001  1.35503E+01  1.14296E+01 -1.00000E+00  1.63670E-01
       2    -1     0     0   511     0  0.000000000E+00  0.000000000E+00  2.224581024E+03  2.224581024E+03  0.000000000E+00  0.00000E+00  9.000E+00
      -2    -1     0     0     0   502  0.000000000E+00  0.000000000E+00 -4.603813076E+01  4.603813076E+01  0.000000000E+00  0.00000E+00  9.000E+00
      -6     2     1     2     0   502  2.498453140E+02 -1.135372622E+01  8.209798394E+02  8.753651811E+02  1.723505600E+02  0.00000E+00  9.000E+00
       6     2     1     2   507     0 -2.384509067E+02  1.045700445E+01  1.139898823E+03  1.177289862E+03  1.722611636E+02  0.00000E+00  9.000E+00
     -24     2     3     3     0     0  2.323267204E+02 -4.177436987E+01  6.160425146E+02  6.645822005E+02  8.025159469E+01  0.00000E+00  9.000E+00
      24     2     4     4     0     0 -2.128035356E+02  6.808489033E+00  1.117644888E+03  1.141113249E+03  8.762221419E+01  0.00000E+00  9.000E+00
     -11     1     6     6     0     0 -8.873630978E+01  6.159728469E+00  2.659942230E+02  2.804728180E+02  0.000000000E+00  0.00000E+00  9.000E+00
      12     1     6     6     0     0 -1.240672258E+02  6.487605641E-01  8.516506646E+02  8.606404313E+02  1.525878906E-05  0.00000E+00  9.000E+00
      13     1     5     5     0     0  1.083486599E+02 -5.123189124E+01  3.696573296E+02  3.886009266E+02  0.000000000E+00  0.00000E+00  9.000E+00
     -14     1     5     5     0     0  1.239780604E+02  9.457521378E+00  2.463851849E+02  2.759812739E+02  4.672030912E-06  0.00000E+00  9.000E+00
       5     1     4     4   513     0 -2.536800997E+01  9.679979630E-01  2.013687716E+01  3.274949270E+01  4.750000000E+00  0.00000E+00  9.000E+00
      -5     1     3     3     0   512 -9.242708633E+00  1.528111114E+01  8.244131272E+01  8.448711478E+01  4.750000000E+00  0.00000E+00  9.000E+00
      21     1     3     3   512   502  2.676130224E+01  1.513953250E+01  1.224960121E+02  1.262958658E+02  0.000000000E+00  0.00000E+00  9.000E+00
      21     1     1     2   511   507 -1.139440733E+01  8.967217718E-01  2.176642309E+02  2.179641118E+02  2.697398305E-06  0.00000E+00  9.000E+00
      21     1     4     4   507   513 -2.793611094E-01  2.680517453E+00  2.117058338E+00  3.427120140E+00  1.429269172E-07  0.00000E+00  9.000E+00
#rwgt            1           8   4.5787891502346199                1     2687324           0      110110           0
<weights>
0.13224E+02
</weights>
</event>
<event>
     13  10001  1.35503E+01  7.68069E+01 -1.00000E+00  1.29212E-01
      21    -1     0     0   507   501  0.000000000E+00  0.000000000E+00  3.756659590E+02  3.756659590E+02  0.000000000E+00  0.00000E+00  9.000E+00
      21    -1     0     0   501   511  0.000000000E+00  0.000000000E+00 -3.820902841E+02  3.820902841E+02  0.000000000E+00  0.00000E+00  9.000E+00
      -6     2     1     2     0   502  2.135988930E+01 -2.214801214E+01 -2.547535621E+02  3.094114189E+02  1.728851336E+02  0.00000E+00  9.000E+00
       6     2     1     2   507     0  1.155214189E+01  9.154615172E+01  2.981825139E+02  3.567770744E+02  1.728089099E+02  0.00000E+00  9.000E+00
     -24     2     3     3     0     0  4.751249452E+01 -4.118432909E+01 -7.756495025E+01  1.292317675E+02  8.204231907E+01  0.00000E+00  9.000E+00
      24     2     4     4     0     0 -3.057530724E+01 -1.538128286E+00  1.464887492E+02  1.738208886E+02  8.841681086E+01  0.00000E+00  9.000E+00
     -11     1     6     6     0     0 -4.288365846E+01  2.491333436E+01  4.092691408E+01  6.430159164E+01  0.000000000E+00  0.00000E+00  9.000E+00
      12     1     6     6     0     0  1.230835123E+01 -2.645146264E+01  1.055618351E+02  1.095192970E+02  1.348699152E-06  0.00000E+00  9.000E+00
      13     1     5     5     0     0  1.087433955E+01 -1.248847380E+01 -8.089697254E+01  8.257441132E+01  0.000000000E+00  0.00000E+00  9.000E+00
     -14     1     5     5     0     0  3.663815497E+01 -2.869585529E+01  3.332022287E+00  4.665735615E+01  1.361153990E-06  0.00000E+00  9.000E+00
       5     1     4     4   507     0  4.212744913E+01  9.308428000E+01  1.516937647E+02  1.829561858E+02  4.750000000E+00  0.00000E+00  9.000E+00
      -5     1     3     3     0   502 -2.615260522E+01  1.903631695E+01 -1.771886119E+02  1.801796514E+02  4.750000000E+00  0.00000E+00  9.000E+00
      21     1     1     2   502   511 -3.291203119E+01 -6.939813958E+01 -4.985327692E+01  9.156774975E+01  0.000000000E+00  0.00000E+00  9.000E+00
#rwgt            2         113   12.328139106244205                1     2698173           0           1           0
<weights>
0.13550E+02
</weights>
</event>
<event>
     15  10001  1.35503E+01  1.66804E+02 -1.00000E+00  3.23778E-01
       1    -1     0     0   507     0  0.000000000E+00  0.000000000E+00  1.088782695E+03  1.088782695E+03  0.000000000E+00  0.00000E+00  9.000E+00
      21    -1     0     0   501   502  0.000000000E+00  0.000000000E+00 -2.879476407E+02  2.879476407E+02  0.000000000E+00  0.00000E+00  9.000E+00
      -6     2     1     2     0   502  2.062187300E+02 -2.492387841E+02  4.154120907E+01  3.668503550E+02  1.679505130E+02  0.00000E+00  9.000E+00
       6     2     1     2   507     0 -4.464174106E+01  2.906673561E+02  1.402360832E+02  3.687435189E+02  1.726998169E+02  0.00000E+00  9.000E+00
     -24     2     3     3     0     0  1.206060744E+02 -2.274754510E+02  3.531864167E+00  2.704042936E+02  8.255363092E+01  0.00000E+00  9.000E+00
      24     2     4     4     0     0  1.794028835E+01  2.533271588E+02  1.299777722E+02  2.940060688E+02  7.105521715E+01  0.00000E+00  9.000E+00
     -11     1     6     6     0     0  1.311171185E+01  4.274404086E+01  5.394646615E+01  7.006562086E+01  0.000000000E+00  0.00000E+00  9.000E+00
      12     1     6     6     0     0  4.828576499E+00  2.105831180E+02  7.603130604E+01  2.239404480E+02  0.000000000E+00  0.00000E+00  9.000E+00
      13     1     5     5     0     0  1.246166970E+02 -1.894632221E+02  2.221799658E+01  2.278580108E+02  0.000000000E+00  0.00000E+00  9.000E+00
     -14     1     5     5     0     0 -4.010622685E+00 -3.801222885E+01 -1.868613241E+01  4.254628281E+01  9.233911863E-07  0.00000E+00  9.000E+00
       5     1     4     4   511     0 -6.278196300E+01  3.751912654E+01  9.466645673E+00  7.390155353E+01  4.750000000E+00  0.00000E+00  9.000E+00
      -5     1     3     3     0   512  6.846790140E+01 -1.563943365E+01  3.140242794E+01  7.707866363E+01  4.750000000E+00  0.00000E+00  9.000E+00
       1     1     1     2   501     0 -1.615769890E+02 -4.142857203E+01  6.190577620E+02  6.411364618E+02  0.000000000E+00  0.00000E+00  9.000E+00
      21     1     3     3   512   502  1.714475429E+01 -6.123899489E+00  6.606916957E+00  1.936739777E+01  2.920019320E-07  0.00000E+00  9.000E+00
      21     1     4     4   507   511  1.999335939E-01 -1.789292659E-01  7.916653003E-01  8.358965676E-01  3.332000937E-08  0.00000E+00  9.000E+00
#rwgt            1          17   14.399728153341467                1     2700052           0       11110           0
<weights>
0.17024E+02
</weights>
</event>
<event>
     14  10001  1.35503E+01  1.69189E+02 -1.00000E+00  2.18457E-01
      21    -1     0     0   502   511  0.000000000E+00  0.000000000E+00  9.802844939E+02  9.802844939E+02  0.000000000E+00  0.00000E+00  9.000E+00
      21    -1     0     0   507   502  0.000000000E+00  0.000000000E+00 -1.591167851E+03  1.591167851E+03  0.000000000E+00  0.00000E+00  9.000E+00
      -6     2     1     2     0   501 -8.321901519E+01  1.505807107E+02  6.176409741E+02  6.640050100E+02  1.726914172E+02  0.00000E+00  9.000E+00
       6     2     1     2   507     0  6.093541933E+01 -3.182957276E+02  2.339589044E+02  4.352102277E+02  1.721797833E+02  0.00000E+00  9.000E+00
     -24     2     3     3     0     0 -2.782538691E+01  1.613923754E+02  4.547305146E+02  4.904894453E+02  8.353624398E+01  0.00000E+00  9.000E+00
      24     2     4     4     0     0 -5.751568755E+00 -1.234246499E+02  3.920278331E+01  1.517064349E+02  7.881154375E+01  0.00000E+00  9.000E+00
     -11     1     6     6     0     0  2.160676558E+01 -2.944627958E+01  3.953899651E+01  5.382627560E+01  0.000000000E+00  0.00000E+00  9.000E+00
      12     1     6     6     0     0 -2.735833433E+01 -9.397837036E+01 -3.362132080E-01  9.788015934E+01  2.292570406E-06  0.00000E+00  9.000E+00
      13     1     5     5     0     0 -3.417460789E+01  1.000643902E+02  3.754526644E+02  3.900583151E+02  0.000000000E+00  0.00000E+00  9.000E+00
     -14     1     5     5     0     0  6.349220982E+00  6.132798518E+01  7.927785022E+01  1.004311302E+02  9.536743164E-07  0.00000E+00  9.000E+00
       5     1     4     4   507     0  6.668698808E+01 -1.948710777E+02  1.947561211E+02  2.835037927E+02  4.750000000E+00  0.00000E+00  9.000E+00
      -5     1     3     3     0   513 -4.614696849E+01 -1.442394470E+01  1.464030495E+02  1.542530657E+02  4.750000000E+00  0.00000E+00  9.000E+00
      21     1     1     2   501   511  2.228359586E+01  1.677150169E+02 -1.462483236E+03  1.472237107E+03  3.737624730E-05  0.00000E+00  9.000E+00
      21     1     3     3   513   501 -9.246659793E+00  3.612279962E+00  1.650740998E+01  1.926249901E+01  5.331201500E-07  0.00000E+00  9.000E+00
#rwgt            1          17   8.7036982692084166                1     2708503           0         111           0
<weights>
0.21417E+02
</weights>
</event>
<event>
     15  10001 -1.35503E+01  1.28251E+01 -1.00000E+00  1.84141E-01
      21    -1     0     0   507   512  0.000000000E+00  0.000000000E+00  3.236999358E+02  3.236999358E+02  0.000000000E+00  0.00000E+00  9.000E+00
      21    -1     0     0   501   502  0.000000000E+00  0.000000000E+00 -2.415701068E+02  2.415701068E+02  0.000000000E+00  0.00000E+00  9.000E+00
      -6     2     1     2     0   502  7.469109131E+01 -5.177158213E+01 -1.313285732E+02  2.343194054E+02  1.714623392E+02  0.00000E+00  9.000E+00
       6     2     1     2   507     0 -7.612634083E+01  6.451609259E+01  2.337057217E+02  3.069832336E+02  1.722289042E+02  0.00000E+00  9.000E+00
     -24     2     3     3     0     0  9.233934408E+01 -3.525860534E+01 -1.452785698E+02  1.933690060E+02  8.072165727E+01  0.00000E+00  9.000E+00
      24     2     4     4     0     0 -1.006858214E+02  2.873313997E+01  2.285697980E+02  2.628698915E+02  7.676717630E+01  0.00000E+00  9.000E+00
     -11     1     6     6     0     0 -4.552784032E+01 -1.264731992E+01  1.549764541E+02  1.620198761E+02  0.000000000E+00  0.00000E+00  9.000E+00
      12     1     6     6     0     0 -5.515798105E+01  4.138045990E+01  7.359334393E+01  1.008500154E+02  3.814697266E-06  0.00000E+00  9.000E+00
      13     1     5     5     0     0  7.485027076E+00 -4.134269272E+01 -3.995758089E+01  5.798148103E+01  0.000000000E+00  0.00000E+00  9.000E+00
     -14     1     5     5     0     0  8.485431700E+01  6.084087385E+00 -1.053209889E+02  1.353875250E+02  4.264961200E-06  0.00000E+00  9.000E+00
       5     1     4     4   513     0  1.561661692E+01  2.321237873E+01  2.893662807E+00  2.852418333E+01  4.750000000E+00  0.00000E+00  9.000E+00
      -5     1     3     3     0   511 -1.100180909E+01 -1.396114278E+01  2.298852323E+01  2.944466015E+01  4.750000000E+00  0.00000E+00  9.000E+00
      21     1     1     2   501   512  1.435249527E+00 -1.274451046E+01 -2.024731946E+01  2.396740356E+01  2.384185791E-07  0.00000E+00  9.000E+00
      21     1     3     3   511   502 -6.646443685E+00 -2.551834007E+00 -9.038526705E+00  1.150573924E+01  1.685873940E-07  0.00000E+00  9.000E+00
      21     1     4     4   507   513  8.942863622E+00  1.257057388E+01  2.242260850E+00  1.558915877E+01  4.256623047E-07  0.00000E+00  9.000E+00
#rwgt            1          17  -55.326068624407121                1     2721103           0       11110           0
<weights>
-.13132E+02
</weights>
</event>
<event>
     13  10001  1.35503E+01  9.64261E+01 -1.00000E+00  1.24543E-01
      21    -1     0     0   502   511  0.000000000E+00  0.000000000E+00  4.297060563E+02  4.297060563E+02  0.000000000E+00  0.00000E+00  9.000E+00
      21    -1     0     0   507   502  0.000000000E+00  0.000000000E+00 -6.827804568E+02  6.827804568E+02  0.000000000E+00  0.00000E+00  9.000E+00
      -6     2     1     2     0   501  3.076109353E+02 -1.527183034E+02  2.019845632E+02  4.340663844E+02  1.722454488E+02  0.00000E+00  9.000E+00
       6     2     1     2   507     0 -3.274024852E+02  5.834520715E+01 -4.445246795E+02  5.814203458E+02  1.727740645E+02  0.00000E+00  9.000E+00
     -24     2     3     3     0     0  2.073904478E+02 -1.322681399E+02  7.198170301E+01  2.685802477E+02  8.030146448E+01  0.00000E+00  9.000E+00
      24     2     4     4     0     0 -3.121687452E+02  9.110784076E+01 -3.798213904E+02  5.071604299E+02  8.483778005E+01  0.00000E+00  9.000E+00
     -11     1     6     6     0     0 -2.095828706E+02  1.918363385E+01 -2.271241276E+02  3.096423110E+02  0.000000000E+00  0.00000E+00  9.000E+00
      12     1     6     6     0     0 -1.025858746E+02  7.192420692E+01 -1.526972629E+02  1.975181189E+02  3.814697266E-06  0.00000E+00  9.000E+00
      13     1     5     5     0     0  1.194400849E+02 -1.051441262E+02  7.623218775E+01  1.764442337E+02  0.000000000E+00  0.00000E+00  9.000E+00
     -14     1     5     5     0     0  8.795036285E+01 -2.712401375E+01 -4.250484747E+00  9.213601395E+01  4.951133646E-07  0.00000E+00  9.000E+00
       5     1     4     4   507     0 -1.523373997E+01 -3.276263361E+01 -6.470328904E+01  7.425991589E+01  4.750000000E+00  0.00000E+00  9.000E+00
      -5     1     3     3     0   501  1.002204875E+02 -2.045016345E+01  1.300028602E+02  1.654861368E+02  4.750000000E+00  0.00000E+00  9.000E+00
      21     1     1     2   501   511  1.979154985E+01  9.437309625E+01 -1.053428419E+01  9.699978291E+01  7.996802250E-07  0.00000E+00  9.000E+00
#rwgt            2         113   3.4257783695729769                1     2731821           0           1           0
<weights>
0.13550E+02
</weights>
</event>
<event>
     15  10001  1.35503E+01  2.20084E+01 -1.00000E+00  1.98290E-01
       3    -1     0     0   502     0  0.000000000E+00  0.000000000E+00  2.023412831E+02  2.023412831E+02  0.000000000E+00  0.00000E+00  9.000E+00
      21    -1     0     0   507   502  0.000000000E+00  0.000000000E+00 -1.106780097E+03  1.106780097E+03  0.000000000E+00  0.00000E+00  9.000E+00
      -6     2     1     2     0   501  4.328736179E+00 -1.012870274E+01 -1.529440121E+02  2.308947882E+02  1.726244589E+02  0.00000E+00  9.000E+00
       6     2     1     2   507     0 -9.970499993E+00  3.140170050E+01 -9.060211524E+02  9.221408357E+02  1.684752642E+02  0.00000E+00  9.000E+00
     -24     2     3     3     0     0 -5.175647286E+01  1.794784542E+01 -1.149732340E+02  1.526966238E+02  8.424106331E+01  0.00000E+00  9.000E+00
      24     2     4     4     0     0  3.937240670E+00 -3.377555478E+01 -6.204293263E+02  6.265592491E+02  8.054597307E+01  0.00000E+00  9.000E+00
     -11     1     6     6     0     0  1.455446773E+01  2.429553874E+01 -2.134401411E+02  2.153109369E+02  0.000000000E+00  0.00000E+00  9.000E+00
      12     1     6     6     0     0 -1.061722706E+01 -5.807109352E+01 -4.069891852E+02  4.112483122E+02  5.394796609E-06  0.00000E+00  9.000E+00
      13     1     5     5     0     0 -6.357781223E+01 -1.429829005E+01 -8.504840357E+01  1.071438764E+02  0.000000000E+00  0.00000E+00  9.000E+00
     -14     1     5     5     0     0  1.182133937E+01  3.224613547E+01 -2.992483039E+01  4.555274734E+01  6.743495762E-07  0.00000E+00  9.000E+00
       5     1     4     4   512     0 -1.276704794E+01  6.702488489E+01 -2.853083176E+02  2.933917711E+02  4.750000000E+00  0.00000E+00  9.000E+00
      -5     1     3     3     0   511  5.055705894E+01 -2.908076121E+01 -2.419739409E+01  6.332284945E+01  4.750000000E+00  0.00000E+00  9.000E+00
       3     1     1     2   501     0  5.641763813E+00 -2.127299776E+01  1.545263511E+02  1.560857556E+02  0.000000000E+00  0.00000E+00  9.000E+00
      21     1     4     4   507   512 -1.140692722E+00 -1.847629602E+00 -2.835084703E-01  2.189815537E+00  5.674193133E-08  0.00000E+00  9.000E+00
      21     1     3     3   511   501  5.528150095E+00  1.004213051E+00 -1.377338406E+01  1.487531498E+01  1.685873940E-07  0.00000E+00  9.000E+00
#rwgt            1          17   9.4514282300037529                1     2732068           0       11011           0
<weights>
0.15541E+02
</weights>
</event>
<event>
     15  10001  1.35503E+01  3.95468E+01 -1.00000E+00  1.65369E-01
      21    -1     0     0   507   501  0.000000000E+00  0.000000000E+00  1.585703482E+03  1.585703482E+03  0.000000000E+00  0.00000E+00  9.000E+00
      21    -1     0     0   511   502  0.000000000E+00  0.000000000E+00 -3.718881979E+01  3.718881979E+01  0.000000000E+00  0.00000E+00  9.000E+00
      -6     2     1     2     0   502 -8.874016405E+01  3.404776152E+01  7.328612647E+02  7.588032298E+02  1.722284572E+02  0.00000E+00  9.000E+00
       6     2     1     2   507     0  1.084698063E+02 -6.832153475E+01  5.044908552E+02  5.504235207E+02  1.789455174E+02  0.00000E+00  9.000E+00
     -24     2     3     3     0     0  3.141615317E-01 -2.151345710E+01  3.067336540E+02  3.177974809E+02  8.029182331E+01  0.00000E+00  9.000E+00
      24     2     4     4     0     0  1.033880651E+02 -6.764422972E+01  4.958932952E+02  5.172195411E+02  7.963077067E+01  0.00000E+00  9.000E+00
     -11     1     6     6     0     0  6.913263120E+01 -1.694583262E+01  3.753182883E+02  3.820082453E+02  0.000000000E+00  0.00000E+00  9.000E+00
      12     1     6     6     0     0  3.425543395E+01 -5.069839710E+01  1.205750069E+02  1.352112958E+02  5.046370146E-06  0.00000E+00  9.000E+00
      13     1     5     5     0     0 -1.982163559E+01  8.997440628E+00  2.456352148E+02  2.465978709E+02  0.000000000E+00  0.00000E+00  9.000E+00
     -14     1     5     5     0     0  2.013579712E+01 -3.051089772E+01  6.109843919E+01  7.119961009E+01  1.348699152E-06  0.00000E+00  9.000E+00
       5     1     4     4   512     0  6.261095830E+00  3.441905114E+00 -1.054120779E+01  1.359145296E+01  4.750000000E+00  0.00000E+00  9.000E+00
      -5     1     3     3     0   513 -8.638837706E+01  4.665967534E+01  4.151239337E+02  4.266034691E+02  4.750000000E+00  0.00000E+00  9.000E+00
      21     1     1     2   511   501 -1.972964220E+01  3.427377323E+01  3.111625422E+02  3.136655511E+02  3.814697266E-06  0.00000E+00  9.000E+00
      21     1     3     3   513   502 -2.665948529E+00  8.901543281E+00  1.100367702E+01  1.440227976E+01  3.371747881E-07  0.00000E+00  9.000E+00
      21     1     4     4   507   512 -1.179354721E+00 -4.119210147E+00  1.913876776E+01  1.961252664E+01  2.384185791E-07  0.00000E+00  9.000E+00
#rwgt            1          17   45.385488651133485                1     2745092           0       11110           0
<weights>
0.14103E+02
</weights>
</event>
<event>
     15  10001  1.35503E+01  2.40282E+01 -1.00000E+00  3.24590E-01
      21    -1     0     0   512   501  0.000000000E+00  0.000000000E+00  4.331386133E+02  4.331386133E+02  0.000000000E+00  0.00000E+00  9.000E+00
      21    -1     0     0   507   502  0.000000000E+00  0.000000000E+00 -5.732062009E+02  5.732062009E+02  0.000000000E+00  0.00000E+00  9.000E+00
      -6     2     1     2     0   501  7.372890932E+01 -5.238174909E+01  3.864946851E+02  4.332098310E+02  1.735304479E+02  0.00000E+00  9.000E+00
       6     2     1     2   507     0 -9.449231793E+01  4.028888215E+01 -4.871824166E+02  5.270033277E+02  1.727246602E+02  0.00000E+00  9.000E+00
     -24     2     3     3     0     0  1.141089739E+02 -6.378771185E+01  3.003211034E+02  3.370967318E+02  7.969762451E+01  0.00000E+00  9.000E+00
      24     2     4     4     0     0 -9.508557800E+01  9.380721910E+00 -1.875783599E+02  2.252639096E+02  8.018056365E+01  0.00000E+00  9.000E+00
     -11     1     6     6     0     0  1.152898481E+01 -6.356265324E+00 -6.844440519E+00  1.483799062E+01  0.000000000E+00  0.00000E+00  9.000E+00
      12     1     6     6     0     0 -1.066145628E+02  1.573698723E+01 -1.807339194E+02  2.104259190E+02  1.907348633E-06  0.00000E+00  9.000E+00
      13     1     5     5     0     0  2.752032189E+01 -3.864270935E+01  1.834601863E+02  1.894947679E+02  0.000000000E+00  0.00000E+00  9.000E+00
     -14     1     5     5     0     0  8.658865201E+01 -2.514500250E+01  1.168609170E+02  1.476019639E+02  5.394796609E-06  0.00000E+00  9.000E+00
       5     1     4     4   511     0  9.625687498E-01  3.238520009E+01 -2.962702730E+02  2.980744285E+02  4.750000000E+00  0.00000E+00  9.000E+00
      -5     1     3     3     0   513 -3.296880532E+01  1.025545098E+01  7.431796760E+01  8.208434204E+01  4.750000000E+00  0.00000E+00  9.000E+00
      21     1     1     2   512   502  2.076340861E+01  1.209286694E+01 -3.937985613E+01  4.613165547E+01  6.743495762E-07  0.00000E+00  9.000E+00
      21     1     4     4   507   511 -3.693086779E-01 -1.477039851E+00 -3.333783648E+00  3.664989636E+00  8.429369702E-08  0.00000E+00  9.000E+00
      21     1     3     3   513   501 -7.411259253E+00  1.150511781E+00  1.185561412E+01  1.402875715E+01  2.920019320E-07  0.00000E+00  9.000E+00
#rwgt            1          17   592.30757331600580                1     2753784           0       11011           0
<weights>
0.13135E+02
</weights>
</event>
<event>
     15  10001  1.35503E+01  3.96985E+00 -1.00000E+00  2.02263E-01
       1    -1     0     0   507     0  0.000000000E+00  0.000000000E+00  3.552619741E+02  3.552619741E+02  0.000000000E+00  0.00000E+00  9.000E+00
      21    -1     0     0   512   502  0.000000000E+00  0.000000000E+00 -3.096753801E+02  3.096753801E+02  0.000000000E+00  0.00000E+00  9.000E+00
      -6     2     1     2     0   502 -7.488546701E+01 -1.161411638E+02  2.211962687E+02  3.124223548E+02  1.719980680E+02  0.00000E+00  9.000E+00
       6     2     1     2   507     0  7.218721708E+01  1.132292679E+02 -4.719091427E+01  2.240348931E+02  1.730109520E+02  0.00000E+00  9.000E+00
     -24     2     3     3     0     0 -9.725520972E+01 -9.275944966E+01  2.282173261E+02  2.748509342E+02  7.346425482E+01  0.00000E+00  9.000E+00
      24     2     4     4     0     0 -6.740890286E+00  1.134141412E+02 -2.317839126E+01  1.413056722E+02  8.075796031E+01  0.00000E+00  9.000E+00
     -11     1     6     6     0     0  1.284536832E+01  5.667039695E+01  2.604283447E+01  6.367704928E+01  0.000000000E+00  0.00000E+00  9.000E+00
      12     1     6     6     0     0 -1.958625861E+01  5.674374424E+01 -4.922122572E+01  7.762862293E+01  1.651812370E-06  0.00000E+00  9.000E+00
      13     1     5     5     0     0 -7.237348938E+01 -9.558422274E+01  2.158731894E+02  2.469321759E+02  0.000000000E+00  0.00000E+00  9.000E+00
     -14     1     5     5     0     0 -2.488172034E+01  2.824773082E+00  1.234413676E+01  2.791875825E+01  1.052827938E-06  0.00000E+00  9.000E+00
       5     1     4     4   514     0  7.095743549E+01  5.593700430E-01 -2.074092070E+01  7.408116385E+01  4.750000000E+00  0.00000E+00  9.000E+00
      -5     1     3     3     0   511  2.170979310E+01 -2.422279809E+01 -2.546919428E+00  3.297132637E+01  4.750000000E+00  0.00000E+00  9.000E+00
      21     1     3     3   511   502  6.599496054E-01  8.410839775E-01 -4.474138056E+00  4.600094247E+00  2.149076030E-07  0.00000E+00  9.000E+00
       1     1     1     2   512     0  2.698249926E+00  2.911895840E+00 -1.284187604E+02  1.284801063E+02  0.000000000E+00  0.00000E+00  9.000E+00
      21     1     4     4   507   514  7.970671876E+00 -7.442433018E-01 -3.271602320E+00  8.648057006E+00  5.960464478E-08  0.00000E+00  9.000E+00
#rwgt            1           4   7.9930783077277315E-002           1     2762324           0      110110           0
<weights>
0.12996E+02
</weights>
</event>
<event>
     15  10001  1.35503E+01  4.54957E+01 -1.00000E+00  1.67768E-01
      21    -1     0     0   512   501  0.000000000E+00  0.000000000E+00  7.132475959E+02  7.132475959E+02  0.000000000E+00  0.00000E+00  9.000E+00
      21    -1     0     0   501   502  0.000000000E+00  0.000000000E+00 -9.867167541E+01  9.867167541E+01  0.000000000E+00  0.00000E+00  9.000E+00
      -6     2     1     2     0   502 -5.400319297E+01 -1.100743816E+02  1.918052865E+02  2.855326439E+02  1.723569217E+02  0.00000E+00  9.000E+00
       6     2     1     2   507     0  1.451520390E+01  1.326699603E+02  1.913545562E+02  2.905407826E+02  1.731628444E+02  0.00000E+00  9.000E+00
     -24     2     3     3     0     0 -7.471761382E+01 -1.213477289E+01  1.006203803E+02  1.494656283E+02  8.053284164E+01  0.00000E+00  9.000E+00
      24     2     4     4     0     0  2.096836557E+01  1.516791261E+02  1.036456831E+02  2.000551312E+02  7.637668649E+01  0.00000E+00  9.000E+00
     -11     1     6     6     0     0  1.860712251E+01  6.830185086E+01  5.138022512E+00  7.097722955E+01  0.000000000E+00  0.00000E+00  9.000E+00
      12     1     6     6     0     0  2.361243069E+00  8.337727523E+01  9.850766061E+01  1.290779016E+02  3.303624740E-06  0.00000E+00  9.000E+00
      13     1     5     5     0     0 -4.665705036E+01 -4.656146306E+01  5.573389550E+01  8.631985460E+01  0.000000000E+00  0.00000E+00  9.000E+00
     -14     1     5     5     0     0 -2.806056346E+01  3.442669017E+01  4.488648482E+01  6.314577371E+01  1.066240300E-06  0.00000E+00  9.000E+00
       5     1     4     4   513     0 -6.955998371E+00 -1.779264548E+01  6.963992031E+01  7.236881337E+01  4.750000000E+00  0.00000E+00  9.000E+00
      -5     1     3     3     0   511  9.453056807E+00 -2.454525115E+01  2.323798306E+01  3.541745324E+01  4.750000000E+00  0.00000E+00  9.000E+00
      21     1     1     2   512   507  3.948798906E+01 -2.259557871E+01  2.314160778E+02  2.358458448E+02  4.672030912E-06  0.00000E+00  9.000E+00
      21     1     3     3   511   502  1.126136404E+01 -7.339435753E+01  6.794692309E+01  1.006495623E+02  9.536743164E-07  0.00000E+00  9.000E+00
      21     1     4     4   507   513  5.028367009E-01 -1.216520320E+00  1.806895277E+01  1.811683805E+01  0.000000000E+00  0.00000E+00  9.000E+00
#rwgt            1          17   32.459687816280919                1     2767501           0       11110           0
<weights>
0.12474E+02
</weights>
</event>
<event>
     15  10001  1.35503E+01  4.84231E+00 -1.00000E+00  1.67698E-01
      21    -1     0     0   507   514  0.000000000E+00  0.000000000E+00  8.641726906E+02  8.641726906E+02  0.000000000E+00  0.00000E+00  9.000E+00
      21    -1     0     0   501   502  0.000000000E+00  0.000000000E+00 -4.678361166E+01  4.678361166E+01  0.000000000E+00  0.00000E+00  9.000E+00
      -6     2     1     2     0   502  3.468996821E+01  1.230082242E+01  2.020581924E+02  2.682386837E+02  1.725391962E+02  0.00000E+00  9.000E+00
       6     2     1     2   507     0 -3.323077326E+01 -7.683603936E+00  5.607911250E+02  5.879633169E+02  1.733518217E+02  0.00000E+00  9.000E+00
     -24     2     3     3     0     0  3.732874463E+01 -8.238836667E+00  2.079930231E+02  2.266375207E+02  8.149941428E+01  0.00000E+00  9.000E+00
      24     2     4     4     0     0 -2.424760646E+01  5.881072011E+01  2.600268167E+02  2.791989072E+02  7.931858039E+01  0.00000E+00  9.000E+00
     -11     1     6     6     0     0 -4.213341744E+01  2.022572376E+01  6.795728732E+01  8.247725545E+01  0.000000000E+00  0.00000E+00  9.000E+00
      12     1     6     6     0     0  1.788581097E+01  3.858499635E+01  1.920695293E+02  1.967216518E+02  4.672030912E-06  0.00000E+00  9.000E+00
      13     1     5     5     0     0 -2.576962042E+01 -7.144341996E+00  5.569952483E+01  6.178634174E+01  0.000000000E+00  0.00000E+00  9.000E+00
     -14     1     5     5     0     0  6.309836505E+01 -1.094494671E+00  1.522934983E+02  1.648511790E+02  1.907348633E-06  0.00000E+00  9.000E+00
       5     1     4     4   511     0  3.824874376E+00 -9.225412842E+00  5.361042637E+01  5.473918360E+01  4.750000000E+00  0.00000E+00  9.000E+00
      -5     1     3     3     0   512 -7.307642002E-01  4.410408892E+00 -1.942296123E+01  2.048901281E+01  4.750000000E+00  0.00000E+00  9.000E+00
      21     1     4     4   507   511 -1.280804117E+01 -5.726891120E+01  2.471538820E+02  2.540252261E+02  3.814697266E-06  0.00000E+00  9.000E+00
      21     1     3     3   512   502 -1.908012221E+00  1.612925019E+01  1.348813053E+01  2.111215023E+01  4.768371582E-07  0.00000E+00  9.000E+00
      21     1     1     2   501   514 -1.459194953E+00 -4.617218481E+00  5.453976151E+01  5.475430159E+01  0.000000000E+00  0.00000E+00  9.000E+00
#rwgt            1          17   7.3645588008989780                1     2772752           0      101101           0
<weights>
0.75384E+01
</weights>
</event>
<event>
     15  10001  1.35503E+01  3.96114E+01 -1.00000E+00  2.28064E-01
      21    -1     0     0   507   512  0.000000000E+00  0.000000000E+00  4.255642430E+02  4.255642430E+02  0.000000000E+00  0.00000E+00  9.000E+00
      21    -1     0     0   501   502  0.000000000E+00  0.000000000E+00 -1.334601161E+02  1.334601161E+02  0.000000000E+00  0.00000E+00  9.000E+00
      -6     2     1     2     0   502  2.386852402E+01 -8.366621072E+01  5.701695047E+01  2.033316553E+02  1.747085807E+02  0.00000E+00  9.000E+00
       6     2     1     2   507     0 -1.534304367E+01  1.223492917E+02  2.319647023E+02  3.159584061E+02  1.755486630E+02  0.00000E+00  9.000E+00
     -24     2     3     3     0     0 -2.596781637E+01 -3.143003105E+01  8.575066491E+01  1.241290479E+02  7.995417219E+01  0.00000E+00  9.000E+00
      24     2     4     4     0     0  1.714299284E+01  1.405502410E+02  2.239634631E+02  2.769055306E+02  8.042877364E+01  0.00000E+00  9.000E+00
     -11     1     6     6     0     0 -7.295541089E+00 -9.867142582E-01  5.347299526E+01  5.397740034E+01  0.000000000E+00  0.00000E+00  9.000E+00
      12     1     6     6     0     0  2.443853393E+01  1.415369552E+02  1.704904679E+02  2.229281303E+02  4.264961200E-06  0.00000E+00  9.000E+00
      13     1     5     5     0     0  2.602780302E+01 -2.575518628E+01  2.716938415E+01  4.559552155E+01  0.000000000E+00  0.00000E+00  9.000E+00
     -14     1     5     5     0     0 -5.199561939E+01 -5.674844768E+00  5.858128076E+01  7.853352631E+01  6.743495762E-07  0.00000E+00  9.000E+00
       5     1     4     4   513     0 -3.106222103E+01 -1.793497532E+01  9.011819879E+00  3.728673106E+01  4.750000000E+00  0.00000E+00  9.000E+00
      -5     1     3     3     0   511  4.719646855E+01 -4.738204535E+01 -2.215530568E+01  7.061150710E+01  4.750000000E+00  0.00000E+00  9.000E+00
      21     1     1     2   501   512 -8.525480350E+00 -3.868308098E+01  3.122474093E+00  3.973429770E+01  9.088486840E-07  0.00000E+00  9.000E+00
      21     1     3     3   511   502  2.639871848E+00 -4.854134326E+00 -6.578408760E+00  8.591100351E+00  2.795705652E-07  0.00000E+00  9.000E+00
      21     1     4     4   507   513 -1.423815484E+00 -2.659739718E-01 -1.010580692E+00  1.766144394E+00  1.405772735E-07  0.00000E+00  9.000E+00
#rwgt            1          17   24.932489464203812                1     2778093           0       11110           0
<weights>
0.13695E+02
</weights>
</event>
<event>
     15  10001  1.35503E+01  1.86216E+01 -1.00000E+00  2.79956E-01
      21    -1     0     0   507   511  0.000000000E+00  0.000000000E+00  2.283743827E+02  2.283743827E+02  0.000000000E+00  0.00000E+00  9.000E+00
      21    -1     0     0   501   502  0.000000000E+00  0.000000000E+00 -2.599642468E+02  2.599642468E+02  0.000000000E+00  0.00000E+00  9.000E+00
      -6     2     1     2     0   502  2.702808407E+01 -3.851986819E+01 -1.546964735E+02  2.360751926E+02  1.720063954E+02  0.00000E+00  9.000E+00
       6     2     1     2   507     0 -3.745815403E+01  5.394637781E+01  7.021704846E+01  1.961914367E+02  1.710184813E+02  0.00000E+00  9.000E+00
     -24     2     3     3     0     0  6.640705974E+01 -5.613048763E+01 -6.428322007E+01  1.355294359E+02  8.170291538E+01  0.00000E+00  9.000E+00
      24     2     4     4     0     0 -2.858564378E+01  1.725827116E+01  1.078710735E+02  1.380565236E+02  7.942574059E+01  0.00000E+00  9.000E+00
     -11     1     6     6     0     0 -1.011665428E+00 -3.061688269E+01  4.388296262E+01  5.351758012E+01  0.000000000E+00  0.00000E+00  9.000E+00
      12     1     6     6     0     0 -2.757397835E+01  4.787515385E+01  6.398811089E+01  8.453894353E+01  1.348699152E-06  0.00000E+00  9.000E+00
      13     1     5     5     0     0 -1.512327455E+01 -1.061732426E+01  5.135207333E+00  1.917840875E+01  0.000000000E+00  0.00000E+00  9.000E+00
     -14     1     5     5     0     0  8.153033430E+01 -4.551316336E+01 -6.941842740E+01  1.163510271E+02  3.568322551E-06  0.00000E+00  9.000E+00
       5     1     4     4   512     0 -2.977871365E+00  2.558479525E+01 -3.727654742E+01  4.555823694E+01  4.750000000E+00  0.00000E+00  9.000E+00
      -5     1     3     3     0   514 -3.381613576E+01  1.244501199E+01 -7.289383298E+01  8.145233421E+01  4.750000000E+00  0.00000E+00  9.000E+00
      21     1     1     2   501   511  1.043006997E+01 -1.542650962E+01  5.288956091E+01  5.607200025E+01  6.743495762E-07  0.00000E+00  9.000E+00
      21     1     4     4   507   512 -5.894638888E+00  1.110331139E+01 -3.774776340E-01  1.257667607E+01  4.296537367E-07  0.00000E+00  9.000E+00
      21     1     3     3   514   502 -5.562839919E+00  5.165607448E+00 -1.751942049E+01  1.909342249E+01  5.331201500E-07  0.00000E+00  9.000E+00
#rwgt            1          17   16.366871471587949                1     2790913           0       11011           0
<weights>
0.14481E+02
</weights>
</event>
<event>
     14  10001 -1.35503E+01  1.01245E+01 -1.00000E+00  5.78462E-01
       2    -1     0     0   512     0  0.000000000E+00  0.000000000E+00  2.092558240E+03  2.092558240E+03  0.000000000E+00  0.00000E+00  9.000E+00
      -2    -1     0     0     0   502  0.000000000E+00  0.000000000E+00 -2.136144164E+01  2.136144164E+01  0.000000000E+00  0.00000E+00  9.000E+00
      -6     2     1     2     0   502  3.844230556E+01 -1.125261538E+01  1.436684699E+03  1.447673753E+03  1.734702803E+02  0.00000E+00  9.000E+00
       6     2     1     2   507     0 -4.822425472E+01  1.386381391E+01  4.994438546E+02  5.307987596E+02  1.725844004E+02  0.00000E+00  9.000E+00
     -24     2     3     3     0     0  7.636192289E+00 -6.496116213E+01  1.127171052E+03  1.131962508E+03  8.090904587E+01  0.00000E+00  9.000E+00
      24     2     4     4     0     0  2.133359308E-04  6.578607601E+01  3.539762906E+02  3.689194982E+02  8.046473776E+01  0.00000E+00  9.000E+00
     -11     1     6     6     0     0 -1.769642669E+01 -4.429086232E-02  1.512472636E+01  2.327923595E+01  0.000000000E+00  0.00000E+00  9.000E+00
      12     1     6     6     0     0  1.769664003E+01  6.583036687E+01  3.388515642E+02  3.456402622E+02  3.814697266E-06  0.00000E+00  9.000E+00
      13     1     5     5     0     0  7.277814255E-02 -6.786329358E+01  1.116521021E+03  1.118581523E+03  0.000000000E+00  0.00000E+00  9.000E+00
     -14     1     5     5     0     0  7.563414146E+00  2.902131448E+00  1.065003115E+01  1.338098516E+01  6.637292341E-07  0.00000E+00  9.000E+00
       5     1     4     4   507     0 -4.822446806E+01 -5.192226210E+01  1.454675640E+02  1.618792615E+02  4.750000000E+00  0.00000E+00  9.000E+00
      -5     1     3     3     0   511  2.796987223E+01  5.049934142E+01  2.850481071E+02  2.908736549E+02  4.750000000E+00  0.00000E+00  9.000E+00
      21     1     1     2   512   507  9.781949158E+00 -2.611198532E+00  1.350682453E+02  1.354471696E+02  0.000000000E+00  0.00000E+00  9.000E+00
      21     1     3     3   511   502  2.836241042E+00  3.209205336E+00  2.446553922E+01  2.483758989E+01  0.000000000E+00  0.00000E+00  9.000E+00
#rwgt            1           8  -1.4111743926795146                1     2796834           0         111           0
<weights>
-.13813E+02
</weights>
</event>
<event>
     15  10001  1.35503E+01  6.96615E+01 -1.00000E+00  3.91931E-01
      21    -1     0     0   502   511  0.000000000E+00  0.000000000E+00  2.383165405E+02  2.383165405E+02  0.000000000E+00  0.00000E+00  9.000E+00
      21    -1     0     0   507   502  0.000000000E+00  0.000000000E+00 -2.489260638E+02  2.489260638E+02  0.000000000E+00  0.00000E+00  9.000E+00
      -6     2     1     2     0   501 -6.070201632E+01 -5.561279150E+01  6.267660827E+01  2.009131720E+02  1.722214507E+02  0.00000E+00  9.000E+00
       6     2     1     2   507     0  1.106490513E+02  7.053347859E+00 -3.845896506E+01  2.084471020E+02  1.722734456E+02  0.00000E+00  9.000E+00
     -24     2     3     3     0     0 -3.111657229E+01  2.715495212E+01 -8.265394107E-01  9.207564868E+01  8.228978927E+01  0.00000E+00  9.000E+00
      24     2     4     4     0     0  1.043790971E+01 -1.004712478E+01  2.963816704E+01  8.593361298E+01  7.934904044E+01  0.00000E+00  9.000E+00
     -11     1     6     6     0     0  1.092111504E+01 -4.465561960E+01  1.504276499E+01  4.837023769E+01  0.000000000E+00  0.00000E+00  9.000E+00
      12     1     6     6     0     0 -4.832053361E-01  3.460849483E+01  1.459540205E+01  3.756337528E+01  7.152557373E-07  0.00000E+00  9.000E+00
      13     1     5     5     0     0  1.158545003E+01 -2.265205446E+01 -6.392351026E+00  2.623357344E+01  0.000000000E+00  0.00000E+00  9.000E+00
     -14     1     5     5     0     0 -4.270202231E+01  4.980700658E+01  5.565811616E+00  6.584207525E+01  1.578116691E-06  0.00000E+00  9.000E+00
       5     1     4     4   513     0  8.883799133E+01  1.592623119E+01 -5.946508545E+01  1.081873025E+02  4.750000000E+00  0.00000E+00  9.000E+00
      -5     1     3     3     0   512 -2.727334732E+01 -8.001404440E+01  5.966830192E+01  1.035806523E+02  4.750000000E+00  0.00000E+00  9.000E+00
      21     1     1     2   501   511 -4.994703494E+01  4.855944365E+01 -3.482716652E+01  7.788233044E+01  2.567846683E-06  0.00000E+00  9.000E+00
      21     1     3     3   512   501 -2.312096713E+00 -2.753699224E+00  3.834845761E+00  5.256870993E+00  8.429369702E-08  0.00000E+00  9.000E+00
      21     1     4     4   507   513  1.137315023E+01  1.174241445E+00 -8.632046651E+00  1.432618646E+01  1.192092896E-07  0.00000E+00  9.000E+00
#rwgt            1          17   22.292854439315711                1     2804819           0       11110           0
<weights>
0.15742E+02
</weights>
</event>
<event>
     15  10001 -1.35503E+01  1.69323E+01 -1.00000E+00  3.22647E-01
      21    -1     0     0   512   501  0.000000000E+00  0.000000000E+00  1.091936258E+02  1.091936258E+02  0.000000000E+00  0.00000E+00  9.000E+00
      21    -1     0     0   501   502  0.000000000E+00  0.000000000E+00 -1.091343878E+03  1.091343878E+03  0.000000000E+00  0.00000E+00  9.000E+00
      -6     2     1     2     0   502  5.305576015E+01  6.608876818E+01 -7.844620981E+02  8.073261690E+02  1.709155370E+02  0.00000E+00  9.000E+00
       6     2     1     2   507     0 -4.499853807E+01 -8.098120235E+01 -9.495227737E-01  1.957454074E+02  1.724312599E+02  0.00000E+00  9.000E+00
     -24     2     3     3     0     0  7.991722748E+01  9.619550999E+01 -5.994977430E+02  6.173947279E+02  7.834772957E+01  0.00000E+00  9.000E+00
      24     2     4     4     0     0 -7.166997644E+01 -1.045140871E+02 -2.439141310E+01  1.522018790E+02  8.068885310E+01  0.00000E+00  9.000E+00
     -11     1     6     6     0     0  1.276274840E+01 -8.592668904E+00  1.179762641E+01  1.938828756E+01  0.000000000E+00  0.00000E+00  9.000E+00
      12     1     6     6     0     0 -8.443272484E+01 -9.592141820E+01 -3.618903951E+01  1.328135915E+02  4.839368613E-06  0.00000E+00  9.000E+00
      13     1     5     5     0     0  7.684512055E+00  2.501496651E+01 -3.415006579E+01  4.302356643E+01  0.000000000E+00  0.00000E+00  9.000E+00
     -14     1     5     5     0     0  7.223271542E+01  7.118054348E+01 -5.653476772E+02  5.743711614E+02  1.078959322E-05  0.00000E+00  9.000E+00
       5     1     4     4   511     0  1.840909255E+01  1.200651015E+01  1.355421403E+01  2.625509841E+01  4.750000000E+00  0.00000E+00  9.000E+00
      -5     1     3     3     0   514 -2.661274051E+01 -3.091000593E+01 -1.844043797E+02  1.889211586E+02  4.750000000E+00  0.00000E+00  9.000E+00
      21     1     1     2   512   507 -8.057222077E+00  1.489243417E+01 -1.967386318E+02  1.974659279E+02  2.697398305E-06  0.00000E+00  9.000E+00
      21     1     4     4   507   511  8.262345814E+00  1.152637461E+01  9.887676298E+00  1.728843002E+01  5.196212463E-07  0.00000E+00  9.000E+00
      21     1     3     3   514   502 -2.487268211E-01  8.032641177E-01 -5.599753925E-01  1.010282492E+00  1.490116119E-08  0.00000E+00  9.000E+00
#rwgt            1          17  -31.973078051095708                1     2814179           0       11011           0
<weights>
-.17056E+02
</weights>
</event>
<event>
     15  10001  1.35503E+01  5.63287E+01 -1.00000E+00  2.05395E-01
      21    -1     0     0   511   501  0.000000000E+00  0.000000000E+00  7.395317908E+02  7.395317908E+02  0.000000000E+00  0.00000E+00  9.000E+00
      21    -1     0     0   501   502  0.000000000E+00  0.000000000E+00 -4.012159955E+02  4.012159955E+02  0.000000000E+00  0.00000E+00  9.000E+00
      -6     2     1     2     0   502  3.273876223E+01 -2.136550526E+02 -2.777450123E+02  3.920998298E+02  1.728573880E+02  0.00000E+00  9.000E+00
       6     2     1     2   507     0  4.064364320E+00  1.710117499E+02  6.419032235E+02  6.866741568E+02  1.738393268E+02  0.00000E+00  9.000E+00
     -24     2     3     3     0     0  2.859238353E+01 -2.667416901E+01 -1.051980919E+02  1.370111847E+02  7.859001519E+01  0.00000E+00  9.000E+00
      24     2     4     4     0     0 -6.800561428E+00  1.771197377E+02  6.439488260E+02  6.725991552E+02  7.938440625E+01  0.00000E+00  9.000E+00
     -11     1     6     6     0     0  2.952732847E+01  2.922496578E+01  1.214757605E+02  1.283834963E+02  0.000000000E+00  0.00000E+00  9.000E+00
      12     1     6     6     0     0 -3.632788990E+01  1.478947719E+02  5.224730655E+02  5.442156589E+02  7.629394531E-06  0.00000E+00  9.000E+00
      13     1     5     5     0     0  5.289014663E+01 -3.243225689E+01 -6.642335562E+01  9.089158965E+01  0.000000000E+00  0.00000E+00  9.000E+00
     -14     1     5     5     0     0 -2.429776310E+01  5.758087889E+00 -3.877473631E+01  4.611959501E+01  9.536743164E-07  0.00000E+00  9.000E+00
       5     1     4     4   513     0  7.413818072E+00 -4.503816820E+00 -2.607725783E+00  1.022799091E+01  4.750000000E+00  0.00000E+00  9.000E+00
      -5     1     3     3     0   512  6.908691073E-01 -1.507193978E+02 -1.301640821E+02  1.992035767E+02  4.750000000E+00  0.00000E+00  9.000E+00
      21     1     1     2   511   507 -3.680312655E+01  4.264330267E+01 -2.584241593E+01  6.197379969E+01  1.877309769E-06  0.00000E+00  9.000E+00
      21     1     3     3   512   502  3.455509591E+00 -3.626148577E+01 -4.238283824E+01  5.588506843E+01  1.430511475E-06  0.00000E+00  9.000E+00
      21     1     4     4   507   513  3.451107676E+00 -1.604170931E+00  5.621233311E-01  3.847010684E+00  3.299353991E-07  0.00000E+00  9.000E+00
#rwgt            1          17   10.065874618917004                1     2820404           0       11110           0
<weights>
0.32390E+02
</weights>
</event>
<event>
     14  10001  1.35503E+01  3.33680E+01 -1.00000E+00  7.50591E-01
      21    -1     0     0   512   501  0.000000000E+00  0.000000000E+00  2.353857909E+02  2.353857909E+02  0.000000000E+00  0.00000E+00  9.000E+00
      21    -1     0     0   507   502  0.000000000E+00  0.000000000E+00 -2.451551838E+02  2.451551838E+02  0.000000000E+00  0.00000E+00  9.000E+00
      -6     2     1     2     0   501 -1.057227494E+02  8.564712499E+01 -2.083278081E+01  2.203463568E+02  1.720633094E+02  0.00000E+00  9.000E+00
       6     2     1     2   507     0  1.296294626E+02 -6.236848063E+01  7.422464102E+00  2.266285257E+02  1.749621981E+02  0.00000E+00  9.000E+00
     -24     2     3     3     0     0 -1.450785395E+01  7.894402782E+01  2.706534062E+01  1.169931701E+02  8.069840042E+01  0.00000E+00  9.000E+00
      24     2     4     4     0     0  1.327624858E+02 -9.372135292E+01  2.675122707E+01  1.838078395E+02  8.160958342E+01  0.00000E+00  9.000E+00
     -11     1     6     6     0     0  6.894232037E+01 -2.443829671E+00  2.169736014E+01  7.231729585E+01  0.000000000E+00  0.00000E+00  9.000E+00
      12     1     6     6     0     0  6.382016539E+01 -9.127752325E+01  5.053866930E+00  1.114905437E+02  1.785156623E-06  0.00000E+00  9.000E+00
      13     1     5     5     0     0  1.528856880E+00 -1.665918967E+01  1.869084870E+00  1.683328495E+01  0.000000000E+00  0.00000E+00  9.000E+00
     -14     1     5     5     0     0 -1.603671083E+01  9.560321749E+01  2.519625575E+01  1.001598851E+02  2.676241913E-06  0.00000E+00  9.000E+00
       5     1     4     4   511     0 -6.929574776E+00  3.185467056E+01 -2.051771161E+01  3.881079789E+01  4.750000000E+00  0.00000E+00  9.000E+00
      -5     1     3     3     0   501 -9.121489544E+01  6.703097166E+00 -4.789812143E+01  1.033531867E+02  4.750000000E+00  0.00000E+00  9.000E+00
      21     1     1     2   512   502 -2.390671318E+01 -2.327864436E+01  3.640923887E+00  3.356609219E+01  7.468440584E-07  0.00000E+00  9.000E+00
      21     1     4     4   507   511  3.796551577E+00 -5.017982727E-01  1.188948644E+00  4.009888310E+00  5.960464478E-08  0.00000E+00  9.000E+00
#rwgt            1          17   14.005134198435130                1     2826990           0         110           0
<weights>
0.14335E+02
</weights>
</event>
<event>
     15  10001  1.35503E+01  6.62284E+01 -1.00000E+00  1.37206E-01
      21    -1     0     0   502   501  0.000000000E+00  0.000000000E+00  3.692643487E+02  3.692643487E+02  0.000000000E+00  0.00000E+00  9.000E+00
      21    -1     0     0   507   511  0.000000000E+00  0.000000000E+00 -4.215635446E+02  4.215635446E+02  0.000000000E+00  0.00000E+00  9.000E+00
      -6     2     1     2     0   501 -1.264422984E+01 -2.930594186E+01  3.005264221E+02  3.478600196E+02  1.722548928E+02  0.00000E+00  9.000E+00
       6     2     1     2   507     0 -4.046998129E+01  6.886700472E+01 -1.881034271E+02  2.654302796E+02  1.693807850E+02  0.00000E+00  9.000E+00
     -24     2     3     3     0     0 -7.960411335E+00 -5.561581051E+01  1.409675319E+02  1.726866646E+02  8.241573000E+01  0.00000E+00  9.000E+00
      24     2     4     4     0     0 -4.557997723E+01 -1.903537130E+01 -7.648746099E+01  1.226156675E+02  8.212423852E+01  0.00000E+00  9.000E+00
     -11     1     6     6     0     0 -8.044097668E+00  2.578112082E+01 -8.500686071E-01  2.702029450E+01  0.000000000E+00  0.00000E+00  9.000E+00
      12     1     6     6     0     0 -3.753587956E+01 -4.481649212E+01 -7.563739238E+01  9.559537304E+01  9.536743164E-07  0.00000E+00  9.000E+00
      13     1     5     5     0     0 -3.094382701E+01  7.322127628E+00  5.692032350E+01  6.520013198E+01  0.000000000E+00  0.00000E+00  9.000E+00
     -14     1     5     5     0     0  2.298341568E+01 -6.293793814E+01  8.404720843E+01  1.074865326E+02  0.000000000E+00  0.00000E+00  9.000E+00
       5     1     4     4   514     0  4.234042614E+00  7.503741160E+01 -1.017084746E+02  1.265532164E+02  4.750000000E+00  0.00000E+00  9.000E+00
      -5     1     3     3     0   512  1.417503955E+01  1.600572210E+01  1.501069495E+02  1.516963205E+02  4.750000000E+00  0.00000E+00  9.000E+00
      21     1     1     2   502   511  5.311421113E+01 -3.956106286E+01 -1.647221909E+02  1.775375941E+02  3.303624740E-06  0.00000E+00  9.000E+00
      21     1     3     3   512   501 -1.885885806E+01  1.030414656E+01  9.451940712E+00  2.347703446E+01  1.192092896E-07  0.00000E+00  9.000E+00
      21     1     4     4   507   514  8.759533248E-01  1.286496441E+01 -9.907491514E+00  1.626139575E+01  2.384185791E-07  0.00000E+00  9.000E+00
#rwgt            1          17   23.509766889501272                1     2835553           0       11110           0
<weights>
0.86286E+01
</weights>
</event>
<event>
     15  10001  1.35503E+01  1.57307E+01 -1.00000E+00  2.11185E-01
      21    -1     0     0   511   501  0.000000000E+00  0.000000000E+00  4.443274752E+02  4.443274752E+02  0.000000000E+00  0.00000E+00  9.000E+00
      21    -1     0     0   507   502  0.000000000E+00  0.000000000E+00 -3.036533218E+02  3.036533218E+02  0.000000000E+00  0.00000E+00  9.000E+00
      -6     2     1     2     0   501  7.324978338E+01 -3.743140909E+01  1.685825703E+02  2.554722585E+02  1.734339952E+02  0.00000E+00  9.000E+00
       6     2     1     2   507     0 -6.753677209E+01  5.208804514E+01  1.927622033E+02  2.712779393E+02  1.707632083E+02  0.00000E+00  9.000E+00
     -24     2     3     3     0     0  6.072275852E+00 -5.991994436E+01  1.502931915E+02  1.814699580E+02  8.195138801E+01  0.00000E+00  9.000E+00
      24     2     4     4     0     0 -9.159643497E+01  6.962013662E+01  1.222380573E+02  1.845896001E+02  7.677439351E+01  0.00000E+00  9.000E+00
     -11     1     6     6     0     0 -8.608874762E+01  3.938952571E+01  1.212674593E+02  1.538460396E+02  0.000000000E+00  0.00000E+00  9.000E+00
      12     1     6     6     0     0 -5.507687351E+00  3.023061091E+01  9.705980071E-01  3.074356057E+01  1.033457570E-06  0.00000E+00  9.000E+00
      13     1     5     5     0     0  4.401987860E+01 -2.863605965E+01  7.652967147E+01  9.281467685E+01  0.000000000E+00  0.00000E+00  9.000E+00
     -14     1     5     5     0     0 -3.794760275E+01 -3.128388471E+01  7.376352001E+01  8.865528118E+01  1.907348633E-06  0.00000E+00  9.000E+00
       5     1     4     4   512     0  2.997627142E+00 -2.371627065E+01  1.974186667E+01  3.136480609E+01  4.750000000E+00  0.00000E+00  9.000E+00
      -5     1     3     3     0   513  4.699366574E+01  1.349404602E+01  1.655339520E+01  5.183696838E+01  4.750000000E+00  0.00000E+00  9.000E+00
      21     1     4     4   507   512  2.106203574E+01  6.184179164E+00  5.078227928E+01  5.532353306E+01  9.536743164E-07  0.00000E+00  9.000E+00
      21     1     1     2   511   502 -5.713011289E+00 -1.465663605E+01 -2.206706201E+02  2.212305992E+02  4.672030912E-06  0.00000E+00  9.000E+00
      21     1     3     3   513   501  2.018384178E+01  8.994489249E+00  1.735983598E+00  2.216533205E+01  5.900558792E-07  0.00000E+00  9.000E+00
#rwgt            1          17   11.718732314575435                1     2840727           0      100111           0
<weights>
0.13413E+02
</weights>
</event>
<event>
     15  10001  1.35503E+01  8.28830E+01 -1.00000E+00  3.56287E-01
       4    -1     0     0   507     0  0.000000000E+00  0.000000000E+00  2.294901743E+02  2.294901743E+02  0.000000000E+00  0.00000E+00  9.000E+00
      21    -1     0     0   501   502  0.000000000E+00  0.000000000E+00 -1.281801839E+03  1.281801839E+03  0.000000000E+00  0.00000E+00  9.000E+00
      -6     2     1     2     0   502 -2.643184001E+01  2.402871860E+01 -3.846041368E+02  4.227445905E+02  1.718040316E+02  0.00000E+00  9.000E+00
       6     2     1     2   507     0 -4.934423175E+01 -5.760820348E+01 -8.594083766E+02  8.796962542E+02  1.718405759E+02  0.00000E+00  9.000E+00
     -24     2     3     3     0     0 -8.483616589E+00 -4.035034067E+01 -3.036866901E+02  3.164493962E+02  7.883205458E+01  0.00000E+00  9.000E+00
      24     2     4     4     0     0 -8.451868640E+01 -5.237183131E+01 -8.054669869E+02  8.148028967E+02  7.239113512E+01  0.00000E+00  9.000E+00
     -11     1     6     6     0     0 -7.256943838E+01 -6.810854373E+01 -7.316137411E+02  7.383520592E+02  0.000000000E+00  0.00000E+00  9.000E+00
      12     1     6     6     0     0 -1.194924802E+01  1.573671242E+01 -7.385324581E+01  7.645083755E+01  1.907348633E-06  0.00000E+00  9.000E+00
      13     1     5     5     0     0  2.292398456E+01 -1.402976850E+01 -3.245070272E+01  4.213539580E+01  0.000000000E+00  0.00000E+00  9.000E+00
     -14     1     5     5     0     0 -3.140760115E+01 -2.632057217E+01 -2.712359874E+02  2.743140004E+02  3.814697266E-06  0.00000E+00  9.000E+00
       5     1     4     4   511     0  2.899876522E+01 -4.732365243E+00 -4.256594893E+01  5.193983224E+01  4.750000000E+00  0.00000E+00  9.000E+00
      -5     1     3     3     0   512 -1.854764248E+01  6.468765773E+01 -7.722437457E+01  1.025410875E+02  4.750000000E+00  0.00000E+00  9.000E+00
       4     1     1     2   501     0  7.577607176E+01  3.357948488E+01  1.917008492E+02  2.088511682E+02  0.000000000E+00  0.00000E+00  9.000E+00
      21     1     3     3   512   502  5.994190590E-01 -3.085984615E-01 -3.693072146E+00  3.754106831E+00  5.960464478E-08  0.00000E+00  9.000E+00
      21     1     4     4   507   511  6.175689424E+00 -5.040069300E-01 -1.137544076E+01  1.295352521E+01  0.000000000E+00  0.00000E+00  9.000E+00
#rwgt            1          17   3.6168562507215340                1     2846080           0       11110           0
<weights>
0.14454E+02
</weights>
</event>
<event>
     14  10001  1.35503E+01  2.56783E+01 -1.00000E+00  3.86155E-01
      21    -1     0     0   511   501  0.000000000E+00  0.000000000E+00  1.068779188E+02  1.068779188E+02  0.000000000E+00  0.00000E+00  9.000E+00
      21    -1     0     0   507   502  0.000000000E+00  0.000000000E+00 -9.642914725E+02  9.642914725E+02  0.000000000E+00  0.00000E+00  9.000E+00
      -6     2     1     2     0   501 -7.411999843E+01 -1.008151480E+02 -5.743674737E+01  2.200676368E+02  1.716779444E+02  0.00000E+00  9.000E+00
       6     2     1     2   507     0  8.335289083E+01  7.685420662E+01 -7.993675175E+02  8.254162673E+02  1.716662833E+02  0.00000E+00  9.000E+00
     -24     2     3     3     0     0 -8.825446585E+01 -6.937083099E+01 -9.580445924E+01  1.672832010E+02  7.876555074E+01  0.00000E+00  9.000E+00
      24     2     4     4     0     0 -1.843165179E+01  4.863909841E+01 -4.579154489E+02  4.679693998E+02  8.126077235E+01  0.00000E+00  9.000E+00
     -11     1     6     6     0     0 -1.971726319E+01  4.057841567E+01 -9.718027088E+01  1.071418841E+02  0.000000000E+00  0.00000E+00  9.000E+00
      12     1     6     6     0     0  1.285611401E+00  8.060682742E+00 -3.607351780E+02  3.608275157E+02  0.000000000E+00  0.00000E+00  9.000E+00
      13     1     5     5     0     0  8.115393251E+00 -3.126038137E+01 -1.375920485E+01  3.510536667E+01  0.000000000E+00  0.00000E+00  9.000E+00
     -14     1     5     5     0     0 -9.636985910E+01 -3.811044962E+01 -8.204525439E+01  1.321778343E+02  1.348699152E-06  0.00000E+00  9.000E+00
       5     1     4     4   507     0  1.017845426E+02  2.821510820E+01 -3.414520686E+02  3.574468675E+02  4.750000000E+00  0.00000E+00  9.000E+00
      -5     1     3     3     0   513  1.278635570E+01 -3.092124009E+01  3.861692203E+01  5.131708437E+01  4.750000000E+00  0.00000E+00  9.000E+00
      21     1     1     2   511   502 -9.232892399E+00  2.396094143E+01 -6.092888207E-01  2.568548713E+01  9.216160399E-07  0.00000E+00  9.000E+00
      21     1     3     3   513   501  1.348111721E+00 -5.230769600E-01 -2.492101624E-01  1.467351500E+00  5.101063824E-08  0.00000E+00  9.000E+00
#rwgt            1          17   91.225822194040745                1     2854935           0         111           0
<weights>
0.12902E+02
</weights>
</event>
<event>
     15  10001  1.35503E+01  1.23644E+01 -1.00000E+00  1.84776E-01
      21    -1     0     0   513   501  0.000000000E+00  0.000000000E+00  1.124232335E+02  1.124232335E+02  0.000000000E+00  0.00000E+00  9.000E+00
      21    -1     0     0   507   502  0.000000000E+00  0.000000000E+00 -5.890990081E+02  5.890990081E+02  0.000000000E+00  0.00000E+00  9.000E+00
      -6     2     1     2     0   501 -8.330668639E+01  3.848550869E+01 -2.547486555E+01  2.017835851E+02  1.778946544E+02  0.00000E+00  9.000E+00
       6     2     1     2   507     0  7.287662421E+01 -3.184537504E+01 -3.550262104E+02  4.027724241E+02  1.727914503E+02  0.00000E+00  9.000E+00
     -24     2     3     3     0     0 -9.711168120E+01  6.340999039E+01 -5.483036018E+01  1.511835082E+02  7.999111980E+01  0.00000E+00  9.000E+00
      24     2     4     4     0     0  4.265037374E+01 -6.678402914E+01 -1.243566088E+02  1.671979476E+02  7.881260431E+01  0.00000E+00  9.000E+00
     -11     1     6     6     0     0  6.488059885E+01 -4.996523769E+01 -1.054604916E+02  1.335212806E+02  0.000000000E+00  0.00000E+00  9.000E+00
      12     1     6     6     0     0 -2.223022511E+01 -1.681879145E+01 -1.889611721E+01  3.367666700E+01  7.152557373E-07  0.00000E+00  9.000E+00
      13     1     5     5     0     0  1.188769925E+01  2.060165995E+01 -9.089682019E+00  2.546307337E+01  0.000000000E+00  0.00000E+00  9.000E+00
     -14     1     5     5     0     0 -1.089993805E+02  4.280833044E+01 -4.574067816E+01  1.257204348E+02  2.336015456E-06  0.00000E+00  9.000E+00
       5     1     4     4   512     0  3.731207686E+00  7.149590551E+00 -5.032224494E+01  5.118524584E+01  4.750000000E+00  0.00000E+00  9.000E+00
      -5     1     3     3     0   511  2.188910544E+01 -1.693200085E+01  2.707470502E+01  3.900548349E+01  4.750000000E+00  0.00000E+00  9.000E+00
      21     1     4     4   507   512  2.649504278E+01  2.778906354E+01 -1.803473567E+02  1.843892307E+02  5.722045898E-06  0.00000E+00  9.000E+00
      21     1     3     3   511   501 -8.084110638E+00 -7.992480850E+00  2.280789612E+00  1.159459340E+01  3.182017282E-07  0.00000E+00  9.000E+00
      21     1     1     2   513   502  1.043006218E+01 -6.640133651E+00 -9.617469860E+01  9.696623239E+01  0.000000000E+00  0.00000E+00  9.000E+00
#rwgt            1          17   32.319886809385380                1     2865642           0      101101           0
<weights>
0.12448E+02
</weights>
</event>
<event>
     13  10001  1.35503E+01  5.21060E+01 -1.00000E+00  1.38061E-01
      21    -1     0     0   502   501  0.000000000E+00  0.000000000E+00  2.103246537E+02  2.103246537E+02  0.000000000E+00  0.00000E+00  9.000E+00
      21    -1     0     0   511   502  0.000000000E+00  0.000000000E+00 -1.389426988E+03  1.389426988E+03  0.000000000E+00  0.00000E+00  9.000E+00
      -6     2     1     2     0   501  6.969417398E+01  1.776661358E+02 -1.865122383E+01  2.577283381E+02  1.722019002E+02  0.00000E+00  9.000E+00
       6     2     1     2   507     0 -7.090065669E+01 -2.297581989E+02 -1.651911804E+02  3.454003221E+02  1.849257238E+02  0.00000E+00  9.000E+00
     -24     2     3     3     0     0 -1.200418878E+01  6.690941962E+01  3.274716439E+01  1.107384423E+02  8.105340741E+01  0.00000E+00  9.000E+00
      24     2     4     4     0     0 -1.837164778E+01 -1.480193213E+02 -2.115186954E+01  1.715888539E+02  8.214679718E+01  0.00000E+00  9.000E+00
     -11     1     6     6     0     0 -1.402367715E-01 -1.250364261E+02 -4.591331710E+01  1.331997004E+02  0.000000000E+00  0.00000E+00  9.000E+00
      12     1     6     6     0     0 -1.823141100E+01 -2.298289522E+01  2.476144755E+01  3.838915348E+01  8.920806376E-07  0.00000E+00  9.000E+00
      13     1     5     5     0     0 -2.169996881E+01 -2.455982326E+00  3.432231799E+01  4.068097845E+01  0.000000000E+00  0.00000E+00  9.000E+00
     -14     1     5     5     0     0  9.695780028E+00  6.936540195E+01 -1.575153596E+00  7.005746389E+01  1.312486969E-06  0.00000E+00  9.000E+00
       5     1     4     4   507     0 -5.252900892E+01 -8.173887762E+01 -1.440393109E+02  1.738114682E+02  4.750000000E+00  0.00000E+00  9.000E+00
      -5     1     3     3     0   501  8.169836276E+01  1.107567162E+02 -5.139838821E+01  1.469898958E+02  4.750000000E+00  0.00000E+00  9.000E+00
      21     1     1     2   511   507  1.206482712E+00  5.209206312E+01 -9.952599303E+02  9.966229816E+02  1.078959322E-05  0.00000E+00  9.000E+00
#rwgt            2         113  0.45932462416151926                1     2870244           0           1           0
<weights>
0.13550E+02
</weights>
</event>
<event>
     15  10001  1.35503E+01  4.36513E+01 -1.00000E+00  2.31202E-01
      21    -1     0     0   512   501  0.000000000E+00  0.000000000E+00  1.339116677E+02  1.339116677E+02  0.000000000E+00  0.00000E+00  9.000E+00
      21    -1     0     0   501   502  0.000000000E+00  0.000000000E+00 -4.612549028E+02  4.612549028E+02  0.000000000E+00  0.00000E+00  9.000E+00
      -6     2     1     2     0   502  6.266189147E+01 -2.154655340E+01 -2.282180638E+02  2.934556005E+02  1.721683426E+02  0.00000E+00  9.000E+00
       6     2     1     2   507     0 -2.565861956E+01 -1.609289445E+00  1.899923418E+01  1.757792013E+02  1.728479162E+02  0.00000E+00  9.000E+00
     -24     2     3     3     0     0 -1.456985672E+01 -4.405859191E+01 -7.218020346E+01  1.171081889E+02  7.969257111E+01  0.00000E+00  9.000E+00
      24     2     4     4     0     0 -1.174654724E+00 -6.298915771E+01  3.133805574E+01  1.063017236E+02  7.968041735E+01  0.00000E+00  9.000E+00
     -11     1     6     6     0     0  1.431616368E+00 -4.781180153E+01 -2.063565516E+01  5.209460774E+01  0.000000000E+00  0.00000E+00  9.000E+00
      12     1     6     6     0     0 -2.606271093E+00 -1.517735618E+01  5.197371090E+01  5.420711590E+01  1.168007728E-06  0.00000E+00  9.000E+00
      13     1     5     5     0     0 -1.313015359E+01  1.253318910E+01 -5.504649809E+01  5.796204546E+01  0.000000000E+00  0.00000E+00  9.000E+00
     -14     1     5     5     0     0 -1.439703130E+00 -5.659178102E+01 -1.713370537E+01  5.914614344E+01  6.307962682E-07  0.00000E+00  9.000E+00
       5     1     4     4   513     0 -7.928294064E+00  9.507688926E+00 -6.341795011E+00  1.469812435E+01  4.750000000E+00  0.00000E+00  9.000E+00
      -5     1     3     3     0   511  7.278964163E+01  1.670563039E+01 -1.431828551E+02  1.615589753E+02  4.750000000E+00  0.00000E+00  9.000E+00
      21     1     1     2   512   507 -3.700327192E+01  2.315584284E+01 -1.181244055E+02  1.259317687E+02  1.907348633E-06  0.00000E+00  9.000E+00
      21     1     4     4   507   513 -1.655567077E+01  5.187217934E+01 -5.997026549E+00  5.477935333E+01  9.310543151E-07  0.00000E+00  9.000E+00
      21     1     3     3   511   502  4.442106561E+00  5.806408127E+00 -1.285500532E+01  1.478843629E+01  1.685873940E-07  0.00000E+00  9.000E+00
#rwgt            1          17   11.459367223653338                1     2871259           0       11011           0
<weights>
0.14203E+02
</weights>
</event>
<event>
     15  10001  1.35503E+01  6.84665E+01 -1.00000E+00  1.46704E-01
      21    -1     0     0   507   501  0.000000000E+00  0.000000000E+00  3.757764909E+01  3.757764909E+01  0.000000000E+00  0.00000E+00  9.000E+00
       2    -1     0     0   501     0  0.000000000E+00  0.000000000E+00 -1.953119796E+03  1.953119796E+03  0.000000000E+00  0.00000E+00  9.000E+00
      -6     2     1     2     0   502  5.283762836E+01  1.265662437E+01 -7.320513520E+02  7.543084362E+02  1.735800388E+02  0.00000E+00  9.000E+00
       6     2     1     2   507     0 -1.212909717E+02 -1.399661941E+01 -4.341735490E+02  4.839503132E+02  1.754817079E+02  0.00000E+00  9.000E+00
     -24     2     3     3     0     0 -1.973561477E+01  4.262993025E+01 -3.124902065E+02  3.258569107E+02  7.953484547E+01  0.00000E+00  9.000E+00
      24     2     4     4     0     0 -1.484197025E+02 -4.008444514E+01 -3.778691062E+02  4.158678624E+02  8.078271341E+01  0.00000E+00  9.000E+00
     -11     1     6     6     0     0 -2.729280767E+01 -3.976413472E+01 -1.533951039E+02  1.607984505E+02  0.000000000E+00  0.00000E+00  9.000E+00
      12     1     6     6     0     0 -1.211268948E+02 -3.203104182E-01 -2.244740022E+02  2.550694120E+02  4.672030912E-06  0.00000E+00  9.000E+00
      13     1     5     5     0     0 -2.794244259E+01  2.882522206E+01 -5.621082327E+01  6.907481580E+01  0.000000000E+00  0.00000E+00  9.000E+00
     -14     1     5     5     0     0  8.206827820E+00  1.380470819E+01 -2.562793832E+02  2.567820949E+02  5.394796609E-06  0.00000E+00  9.000E+00
       5     1     4     4   512     0  2.070856671E+01  2.169822020E+01 -4.244601377E+01  5.219084288E+01  4.750000000E+00  0.00000E+00  9.000E+00
      -5     1     3     3     0   511  4.571302927E+01  5.234316265E-01 -2.380679423E+02  2.424641472E+02  4.750000000E+00  0.00000E+00  9.000E+00
       2     1     1     2   502     0  6.845334332E+01  1.339995037E+00 -7.493172458E+02  7.524386956E+02  0.000000000E+00  0.00000E+00  9.000E+00
      21     1     3     3   511   502  2.686021385E+01 -3.049673751E+01 -1.814932032E+02  1.859873783E+02  2.697398305E-06  0.00000E+00  9.000E+00
      21     1     4     4   507   512  6.420164106E+00  4.389605528E+00 -1.385842911E+01  1.589160789E+01  3.769728732E-07  0.00000E+00  9.000E+00
#rwgt            1          17   28.379849431137941                1     2873872           0       11110           0
<weights>
0.13349E+02
</weights>
</event>
<event>
     13  10001  1.35503E+01  2.98395E+01 -1.00000E+00  7.52213E-01
      21    -1     0     0   507   511  0.000000000E+00  0.000000000E+00  1.440684980E+02  1.440684980E+02  0.000000000E+00  0.00000E+00  9.000E+00
      21    -1     0     0   501   502  0.000000000E+00  0.000000000E+00 -3.809346553E+02  3.809346553E+02  0.000000000E+00  0.00000E+00  9.000E+00
      -6     2     1     2     0   502 -1.091946638E+01 -1.286749050E+02 -1.805417225E+02  2.805879254E+02  1.716327603E+02  0.00000E+00  9.000E+00
       6     2     1     2   507     0  3.084962049E+01  1.064672045E+02 -3.897195655E+01  2.098970948E+02  1.739281814E+02  0.00000E+00  9.000E+00
     -24     2     3     3     0     0 -5.594164500E+01 -1.284409872E+02 -1.638630018E+02  2.323407130E+02  8.662891379E+01  0.00000E+00  9.000E+00
      24     2     4     4     0     0 -4.552415367E+01  8.464258227E+01 -1.334354968E+01  1.262989773E+02  8.084903244E+01  0.00000E+00  9.000E+00
     -11     1     6     6     0     0  2.742135143E+00  6.177478040E+01  1.796114315E+01  6.439134617E+01  0.000000000E+00  0.00000E+00  9.000E+00
      12     1     6     6     0     0 -4.826628881E+01  2.286780188E+01 -3.130469282E+01  6.190763112E+01  1.784161275E-06  0.00000E+00  9.000E+00
      13     1     5     5     0     0  9.237654150E+00 -1.246730770E+01  5.952903020E+00  1.661941845E+01  0.000000000E+00  0.00000E+00  9.000E+00
     -14     1     5     5     0     0 -6.517929915E+01 -1.159736795E+02 -1.698159048E+02  2.157212945E+02  2.697398305E-06  0.00000E+00  9.000E+00
       5     1     4     4   507     0  7.637377416E+01  2.182462225E+01 -2.562840687E+01  8.359811753E+01  4.750000000E+00  0.00000E+00  9.000E+00
      -5     1     3     3     0   502  4.502217863E+01 -2.339177571E-01 -1.667872072E+01  4.824721247E+01  4.750000000E+00  0.00000E+00  9.000E+00
      21     1     1     2   501   511 -1.993015411E+01  2.220770046E+01 -1.735247821E+01  3.451813296E+01  6.307962682E-07  0.00000E+00  9.000E+00
#rwgt            1          17   22.523994236059448                1     2879171           0           1           0
<weights>
0.13634E+02
</weights>
</event>
<event>
     14  10001  1.35503E+01  4.05175E+01 -1.00000E+00  7.38747E-01
      21    -1     0     0   512   501  0.000000000E+00  0.000000000E+00  2.215260320E+02  2.215260320E+02  0.000000000E+00  0.00000E+00  9.000E+00
      21    -1     0     0   507   502  0.000000000E+00  0.000000000E+00 -2.319264349E+02  2.319264349E+02  0.000000000E+00  0.00000E+00  9.000E+00
      -6     2     1     2     0   501  4.180505122E+01 -3.617551140E+00  3.695654275E+01  1.813886379E+02  1.725552170E+02  0.00000E+00  9.000E+00
       6     2     1     2   507     0 -8.232252471E+01  3.668034561E+00  1.994419642E+01  1.935074039E+02  1.739450829E+02  0.00000E+00  9.000E+00
     -24     2     3     3     0     0  1.431106188E+01 -3.710768146E+01  7.255028328E+01  1.251126648E+02  9.385013998E+01  0.00000E+00  9.000E+00
      24     2     4     4     0     0 -1.212579303E+02 -1.279815562E+01  8.532977721E+00  1.475779476E+02  8.269921671E+01  0.00000E+00  9.000E+00
     -11     1     6     6     0     0 -5.780164316E+01 -2.323070476E+00  4.531858119E+01  7.348605589E+01  0.000000000E+00  0.00000E+00  9.000E+00
      12     1     6     6     0     0 -6.345628716E+01 -1.047508514E+01 -3.678560347E+01  7.409189167E+01  2.078484985E-06  0.00000E+00  9.000E+00
      13     1     5     5     0     0  5.843691987E+00  3.175579548E+01  2.725461901E+01  4.225391746E+01  0.000000000E+00  0.00000E+00  9.000E+00
     -14     1     5     5     0     0  8.467369895E+00 -6.886347694E+01  4.529566426E+01  8.285874734E+01  1.907348633E-06  0.00000E+00  9.000E+00
       5     1     4     4   513     0  2.883350521E+01  1.726929231E+01  1.136491812E+01  3.579557715E+01  4.750000000E+00  0.00000E+00  9.000E+00
      -5     1     3     3     0   501  2.749398934E+01  3.349013032E+01 -3.559374053E+01  5.627597306E+01  4.750000000E+00  0.00000E+00  9.000E+00
      21     1     1     2   512   502  4.051747349E+01 -5.048342112E-02 -6.730114203E+01  7.855642510E+01  9.536743164E-07  0.00000E+00  9.000E+00
      21     1     4     4   507   513  1.010190039E+01 -8.031021315E-01  4.630058447E-02  1.013387924E+01  2.885620001E-07  0.00000E+00  9.000E+00
#rwgt            1          17   150.54481107338995                1     2895726           0         110           0
<weights>
0.18937E+02
</weights>
</event>
<event>
     15  10001  1.35503E+01  1.31884E+01 -1.00000E+00  2.06757E-01
      21    -1     0     0   502   512  0.000000000E+00  0.000000000E+00  1.012413405E+03  1.012413405E+03  0.000000000E+00  0.00000E+00  9.000E+00
      21    -1     0     0   507   502  0.000000000E+00  0.000000000E+00 -1.006734847E+02  1.006734847E+02  0.000000000E+00  0.00000E+00  9.000E+00
      -6     2     1     2     0   501  1.532682248E+02  1.453395603E+02  5.223251918E+02  5.890806351E+02  1.719815459E+02  0.00000E+00  9.000E+00
       6     2     1     2   507     0 -1.593028560E+02 -1.336127721E+02  2.046276962E+02  3.387491855E+02  1.721881061E+02  0.00000E+00  9.000E+00
     -24     2     3     3     0     0  2.470398075E+01  9.650452249E+01  2.092389737E+02  2.464340969E+02  8.381769783E+01  0.00000E+00  9.000E+00
      24     2     4     4     0     0 -1.173722377E+02 -3.245280921E+01  1.560956723E+02  2.139272456E+02  8.105294859E+01  0.00000E+00  9.000E+00
     -11     1     6     6     0     0  2.709140613E+00  1.224766780E+01  3.672154256E+01  3.880485147E+01  0.000000000E+00  0.00000E+00  9.000E+00
      12     1     6     6     0     0 -1.200813783E+02 -4.470047701E+01  1.193741298E+02  1.751223941E+02  5.046370146E-06  0.00000E+00  9.000E+00
      13     1     5     5     0     0  3.488122739E-01  2.267366348E+01 -5.708125661E-01  2.268352955E+01  0.000000000E+00  0.00000E+00  9.000E+00
     -14     1     5     5     0     0  2.435516848E+01  7.383085901E+01  2.098097863E+02  2.237505674E+02  2.697398305E-06  0.00000E+00  9.000E+00
       5     1     4     4   511     0 -4.295101447E+01 -9.289034263E+01  3.377246777E+01  1.078728301E+02  4.750000000E+00  0.00000E+00  9.000E+00
      -5     1     3     3     0   513  1.130233515E+02  4.357088782E+01  2.900574053E+02  3.143701021E+02  4.750000000E+00  0.00000E+00  9.000E+00
      21     1     4     4   507   511  1.020396237E+00 -8.269620239E+00  1.475955610E+01  1.694910982E+01  4.129530925E-07  0.00000E+00  9.000E+00
      21     1     1     2   501   512  6.034631177E+00 -1.172678820E+01  1.847870323E+02  1.852570690E+02  0.000000000E+00  0.00000E+00  9.000E+00
      21     1     3     3   513   501  1.554089257E+01  5.264149976E+00  2.302881275E+01  2.827643601E+01  4.768371582E-07  0.00000E+00  9.000E+00
#rwgt            1          17   23.311143663967375                1     2911247           0      100111           0
<weights>
0.17447E+02
</weights>
</event>
<event>
     15  10001 -1.35503E+01  7.02177E+00 -1.00000E+00  1.56185E-01
       2    -1     0     0   502     0  0.000000000E+00  0.000000000E+00  3.561129184E+02  3.561129184E+02  0.000000000E+00  0.00000E+00  9.000E+00
      21    -1     0     0   507   502  0.000000000E+00  0.000000000E+00 -2.019477965E+03  2.019477965E+03  0.000000000E+00  0.00000E+00  9.000E+00
      -6     2     1     2     0   501 -2.879330489E+01 -8.066309838E+01 -2.717560389E+02  3.104175938E+02  1.231752734E+02  0.00000E+00  9.000E+00
       6     2     1     2   507     0  2.888340688E+01  8.768429506E+01 -1.722770923E+03  1.733936940E+03  1.734210759E+02  0.00000E+00  9.000E+00
     -24     2     3     3     0     0 -3.209331105E+01 -8.589696623E+01 -2.668324776E+02  2.933543418E+02  8.030522582E+01  0.00000E+00  9.000E+00
      24     2     4     4     0     0  5.544656150E+01  7.022075704E+01 -1.538787711E+03  1.545532722E+03  1.131304478E+02  0.00000E+00  9.000E+00
     -11     1     6     6     0     0 -1.410648148E+01 -2.172326161E+01 -1.786760734E+02  1.805437125E+02  0.000000000E+00  0.00000E+00  9.000E+00
      12     1     6     6     0     0  6.955304299E+01  9.194401865E+01 -1.360111638E+03  1.364989009E+03  3.737624730E-05  0.00000E+00  9.000E+00
      13     1     5     5     0     0 -5.116921447E+01 -8.555868027E+01 -2.441230920E+02  2.636942554E+02  0.000000000E+00  0.00000E+00  9.000E+00
     -14     1     5     5     0     0  1.907590341E+01 -3.382859652E-01 -2.270938563E+01  2.966008638E+01  1.168007728E-06  0.00000E+00  9.000E+00
       5     1     4     4   511     0 -3.021621385E+01  1.164173488E+01 -1.650151283E+02  1.682293216E+02  4.750000000E+00  0.00000E+00  9.000E+00
      -5     1     3     3     0   512  1.686170582E+00  1.682043782E+00 -9.600435420E+00  1.097284388E+01  4.750000000E+00  0.00000E+00  9.000E+00
      21     1     3     3   512   501  1.613835581E+00  3.551824070E+00  4.676874116E+00  6.090408115E+00  8.259061849E-07  0.00000E+00  9.000E+00
      21     1     4     4   507   511  3.653059230E+00  5.821803141E+00 -1.896808388E+01  2.017489627E+01  2.384185791E-07  0.00000E+00  9.000E+00
       2     1     1     2   501     0 -9.010199110E-02 -7.021196675E+00  3.311619155E+02  3.312363501E+02  0.000000000E+00  0.00000E+00  9.000E+00
#rwgt            1          17  -1164.6855275793255                1     2915322           0      111001           0
<weights>
-.13686E+02
</weights>
</event>
<event>
     15  10001  1.35503E+01  1.17877E+01 -1.00000E+00  2.27369E-01
      21    -1     0     0   511   501  0.000000000E+00  0.000000000E+00  2.041938392E+02  2.041938392E+02  0.000000000E+00  0.00000E+00  9.000E+00
      21    -1     0     0   507   502  0.000000000E+00  0.000000000E+00 -3.879797195E+02  3.879797195E+02  0.000000000E+00  0.00000E+00  9.000E+00
      -6     2     1     2     0   501 -6.173662561E+01 -1.352370128E+02  5.871096348E+01  2.352972387E+02  1.726770186E+02  0.00000E+00  9.000E+00
       6     2     1     2   507     0  7.289185591E+01  1.390464059E+02 -2.508399632E+02  3.424347729E+02  1.723187771E+02  0.00000E+00  9.000E+00
     -24     2     3     3     0     0 -7.710322476E+01 -1.523772331E+02  2.127658553E+01  1.900976234E+02  8.075075788E+01  0.00000E+00  9.000E+00
      24     2     4     4     0     0  3.317929968E+01  4.624962660E+01 -2.171309328E+02  2.357101404E+02  7.192728577E+01  0.00000E+00  9.000E+00
     -11     1     6     6     0     0  5.087776002E+01  4.257242637E+01 -2.003413248E+02  2.110393432E+02  0.000000000E+00  0.00000E+00  9.000E+00
      12     1     6     6     0     0 -1.769846033E+01  3.677200235E+00 -1.678960796E+01  2.467079722E+01  4.129530925E-07  0.00000E+00  9.000E+00
      13     1     5     5     0     0 -1.724076605E+01 -1.909285497E+01  3.489659720E+01  4.335381899E+01  0.000000000E+00  0.00000E+00  9.000E+00
     -14     1     5     5     0     0 -5.986245871E+01 -1.332843781E+02 -1.362001167E+01  1.467438044E+02  1.743881564E-06  0.00000E+00  9.000E+00
       5     1     4     4   513     0  3.886601794E+01  9.214180730E+01 -3.375473497E+01  1.056533229E+02  4.750000000E+00  0.00000E+00  9.000E+00
      -5     1     3     3     0   512  1.147270096E+01  1.010484608E+01  3.104274933E+01  3.492771919E+01  4.750000000E+00  0.00000E+00  9.000E+00
      21     1     1     2   511   502 -1.115523030E+01 -3.809393048E+00  8.343119457E+00  1.444154703E+01  3.576278687E-07  0.00000E+00  9.000E+00
      21     1     3     3   512   501  3.893898190E+00  7.035374214E+00  6.391628627E+00  1.027189612E+01  2.795705652E-07  0.00000E+00  9.000E+00
      21     1     4     4   507   513  8.465382865E-01  6.549719664E-01  4.570459931E-02  1.071309599E+00  1.479894722E-08  0.00000E+00  9.000E+00
#rwgt            1          17   14.096813747362173                1     2931840           0       11110           0
<weights>
0.91470E+01
</weights>
</event>
<event>
     15  10001  1.35503E+01  2.25917E+01 -1.00000E+00  3.40392E-01
      21    -1     0     0   502   512  0.000000000E+00  0.000000000E+00  4.284685385E+02  4.284685385E+02  0.000000000E+00  0.00000E+00  9.000E+00
      21    -1     0     0   507   502  0.000000000E+00  0.000000000E+00 -6.598727421E+02  6.598727421E+02  0.000000000E+00  0.00000E+00  9.000E+00
      -6     2     1     2     0   501  6.703764099E+01  5.863341754E+01  2.777490437E+02  3.387608694E+02  1.722860192E+02  0.00000E+00  9.000E+00
       6     2     1     2   507     0 -5.022082901E+01 -4.354764971E+01 -6.144518439E+02  6.418855644E+02  1.733420890E+02  0.00000E+00  9.000E+00
     -24     2     3     3     0     0  4.450403043E+01  1.021414034E+02  2.392464888E+02  2.760894369E+02  8.107416204E+01  0.00000E+00  9.000E+00
      24     2     4     4     0     0 -7.655225468E+01 -7.592855252E+01 -3.734034356E+02  3.969652647E+02  8.078306064E+01  0.00000E+00  9.000E+00
     -11     1     6     6     0     0  9.757805571E+00  4.855519846E+00 -9.909288952E+00  1.473040563E+01  0.000000000E+00  0.00000E+00  9.000E+00
      12     1     6     6     0     0 -8.631006025E+01 -8.078407237E+01 -3.634941467E+02  3.822348591E+02  9.344061824E-06  0.00000E+00  9.000E+00
      13     1     5     5     0     0  4.960263201E+01  3.477697094E+01  1.646888984E+02  1.754773264E+02  0.000000000E+00  0.00000E+00  9.000E+00
     -14     1     5     5     0     0 -5.098601576E+00  6.736443247E+01  7.455759035E+01  1.006121105E+02  3.814697266E-06  0.00000E+00  9.000E+00
       5     1     4     4   514     0  2.577609350E+01  3.266240102E+01 -2.252693956E+02  2.291290085E+02  4.750000000E+00  0.00000E+00  9.000E+00
      -5     1     3     3     0   511  1.789697463E+01 -3.485496196E+01  2.871272196E+01  4.880730454E+01  4.750000000E+00  0.00000E+00  9.000E+00
      21     1     1     2   501   512 -1.681681198E+01 -1.508576783E+01  1.052985967E+02  1.076948467E+02  1.348699152E-06  0.00000E+00  9.000E+00
      21     1     3     3   511   501  4.636635929E+00 -8.653023919E+00  9.789833007E+00  1.386412803E+01  3.576278687E-07  0.00000E+00  9.000E+00
      21     1     4     4   507   514  5.553321758E-01 -2.814982106E-01 -1.577901272E+01  1.579129119E+01  2.384185791E-07  0.00000E+00  9.000E+00
#rwgt            1          17   109.46095112060499                1     2940375           0       11110           0
<weights>
0.13775E+02
</weights>
</event>
<event>
     13  10001  1.35503E+01  3.87939E+01 -1.00000E+00  1.45670E-01
      21    -1     0     0   511   501  0.000000000E+00  0.000000000E+00  3.677279350E+02  3.677279350E+02  0.000000000E+00  0.00000E+00  9.000E+00
      21    -1     0     0   501   502  0.000000000E+00  0.000000000E+00 -2.133000851E+02  2.133000851E+02  0.000000000E+00  0.00000E+00  9.000E+00
      -6     2     1     2     0   502 -1.532347495E+01 -4.508010223E+01 -1.302196812E+02  1.988880307E+02  1.425912301E+02  0.00000E+00  9.000E+00
       6     2     1     2   507     0  3.157093257E+01  9.852420189E+00  1.194933937E+02  2.124907673E+02  1.725684244E+02  0.00000E+00  9.000E+00
     -24     2     3     3     0     0  1.018184052E+01 -5.244669925E+01 -4.199538907E+01  1.066336211E+02  8.217536315E+01  0.00000E+00  9.000E+00
      24     2     4     4     0     0  1.359604057E+00  2.807941014E+01 -2.214197014E+00  8.568285092E+01  8.090949559E+01  0.00000E+00  9.000E+00
     -11     1     6     6     0     0  3.965180782E+01  2.244474450E+01  6.457315762E+00  4.601879339E+01  0.000000000E+00  0.00000E+00  9.000E+00
      12     1     6     6     0     0 -3.829220376E+01  5.634665643E+00 -8.671512777E+00  3.966405753E+01  6.743495762E-07  0.00000E+00  9.000E+00
      13     1     5     5     0     0  2.148814185E+01 -1.662598591E+01 -5.933679771E+01  6.526116157E+01  0.000000000E+00  0.00000E+00  9.000E+00
     -14     1     5     5     0     0 -1.130630132E+01 -3.582071334E+01  1.734140864E+01  4.137245953E+01  1.011524364E-06  0.00000E+00  9.000E+00
       5     1     4     4   507     0  3.021132852E+01 -1.822698995E+01  1.217075907E+02  1.268079164E+02  4.750000000E+00  0.00000E+00  9.000E+00
      -5     1     3     3     0   502 -2.550531548E+01  7.366597026E+00 -8.822429214E+01  9.225440961E+01  4.750000000E+00  0.00000E+00  9.000E+00
      21     1     1     2   511   507 -1.624745762E+01  3.522768204E+01  1.651541373E+02  1.696492220E+02  0.000000000E+00  0.00000E+00  9.000E+00
#rwgt            2         113   22.062665780532150                1     2958992           0           1           0
<weights>
0.13550E+02
</weights>
</event>
<event>
     15  10001  1.35503E+01  3.01907E+01 -1.00000E+00  2.85553E-01
      21    -1     0     0   502   512  0.000000000E+00  0.000000000E+00  1.370600566E+02  1.370600566E+02  0.000000000E+00  0.00000E+00  9.000E+00
      21    -1     0     0   507   502  0.000000000E+00  0.000000000E+00 -3.139256388E+02  3.139256388E+02  0.000000000E+00  0.00000E+00  9.000E+00
      -6     2     1     2     0   501 -6.036883134E+01 -3.078950627E+01 -4.857073160E+01  1.913451181E+02  1.722249946E+02  0.00000E+00  9.000E+00
       6     2     1     2   507     0  7.078766504E+01  5.912542500E+01 -8.478010443E+01  2.066782367E+02  1.643822315E+02  0.00000E+00  9.000E+00
     -24     2     3     3     0     0 -7.934094729E+01  1.627690410E+01 -7.081535054E+01  1.341567207E+02  8.014541974E+01  0.00000E+00  9.000E+00
      24     2     4     4     0     0  4.599870363E+01  5.884167759E+01  7.658784325E+00  1.074755767E+02  7.690330840E+01  0.00000E+00  9.000E+00
     -11     1     6     6     0     0  1.326732594E+01  5.198559217E+01 -2.635510273E+01  5.977553990E+01  0.000000000E+00  0.00000E+00  9.000E+00
      12     1     6     6     0     0  3.273137770E+01  6.856085419E+00  3.401388706E+01  4.770003675E+01  1.846782373E-06  0.00000E+00  9.000E+00
      13     1     5     5     0     0 -4.807063814E+01  1.796128340E+01  5.553861963E+00  5.161627006E+01  0.000000000E+00  0.00000E+00  9.000E+00
     -14     1     5     5     0     0 -3.127030915E+01 -1.684379295E+00 -7.636921251E+01  8.254045061E+01  2.697398305E-06  0.00000E+00  9.000E+00
       5     1     4     4   513     0  2.436556478E+01  2.496327950E+00 -9.345742598E+01  9.673037460E+01  4.750000000E+00  0.00000E+00  9.000E+00
      -5     1     3     3     0   511  1.742935119E+01 -4.387908115E+01  2.406626733E+01  5.320623806E+01  4.750000000E+00  0.00000E+00  9.000E+00
      21     1     1     2   501   512 -1.041883370E+01 -2.833591873E+01 -4.351474615E+01  5.296234057E+01  6.743495762E-07  0.00000E+00  9.000E+00
      21     1     4     4   507   513  4.233966253E-01 -2.212580536E+00  1.018537226E+00  2.472285463E+00  4.470348358E-08  0.00000E+00  9.000E+00
      21     1     3     3   511   501  1.542764760E+00 -3.187329230E+00 -1.821648383E+00  3.982159409E+00  6.664001875E-08  0.00000E+00  9.000E+00
#rwgt            1          17   5.8179805694002118                1     2963511           0       11011           0
<weights>
0.10354E+02
</weights>
</event>
<event>
     13  10001  1.35503E+01  1.77157E+02 -1.00000E+00  1.13600E-01
      21    -1     0     0   507   511  0.000000000E+00  0.000000000E+00  1.454192975E+02  1.454192975E+02  0.000000000E+00  0.00000E+00  9.000E+00
      21    -1     0     0   501   502  0.000000000E+00  0.000000000E+00 -1.701619937E+03  1.701619937E+03  0.000000000E+00  0.00000E+00  9.000E+00
      -6     2     1     2     0   502  1.220580847E+01  2.135929201E+01 -1.191940361E+03  1.204634051E+03  1.726736017E+02  0.00000E+00  9.000E+00
       6     2     1     2   507     0  9.545179789E+01  1.193329882E+02 -3.998040451E+02  4.617180577E+02  1.731729842E+02  0.00000E+00  9.000E+00
     -24     2     3     3     0     0 -4.857244633E+01  1.069721442E+00 -4.361236548E+02  4.460912914E+02  8.020705201E+01  0.00000E+00  9.000E+00
      24     2     4     4     0     0  4.193438458E+01  1.058078245E+02 -3.772989031E+02  4.019176605E+02  7.892753149E+01  0.00000E+00  9.000E+00
     -11     1     6     6     0     0 -1.695197841E+01  3.993539032E+01 -1.890574309E+02  1.939714339E+02  0.000000000E+00  0.00000E+00  9.000E+00
      12     1     6     6     0     0  5.888636299E+01  6.587243420E+01 -1.882414722E+02  2.079462266E+02  2.697398305E-06  0.00000E+00  9.000E+00
      13     1     5     5     0     0 -2.476965832E+01  3.265702674E+01 -3.351605657E+02  3.376575517E+02  0.000000000E+00  0.00000E+00  9.000E+00
     -14     1     5     5     0     0 -2.380278801E+01 -3.158730530E+01 -1.009630890E+02  1.084337398E+02  0.000000000E+00  0.00000E+00  9.000E+00
       5     1     4     4   507     0  5.351741331E+01  1.352516369E+01 -2.250514207E+01  5.980039715E+01  4.750000000E+00  0.00000E+00  9.000E+00
      -5     1     3     3     0   502  6.077825480E+01  2.028957056E+01 -7.558167062E+02  7.585427600E+02  4.750000000E+00  0.00000E+00  9.000E+00
      21     1     1     2   501   511 -1.076576064E+02 -1.406922802E+02  3.554376662E+01  1.806871253E+02  5.457650729E-06  0.00000E+00  9.000E+00
#rwgt            2         113   4.4348224566239720                1     2974315           0           1           0
<weights>
0.13550E+02
</weights>
</event>
<event>
     14  10001  1.35503E+01  1.33636E+01 -1.00000E+00  2.11663E-01
       2    -1     0     0   507     0  0.000000000E+00  0.000000000E+00  8.439078384E+02  8.439078384E+02  0.000000000E+00  0.00000E+00  9.000E+00
      21    -1     0     0   501   502  0.000000000E+00  0.000000000E+00 -1.108091591E+02  1.108091591E+02  0.000000000E+00  0.00000E+00  9.000E+00
      -6     2     1     2     0   502  5.071661667E+01 -5.079940193E+01  2.399337848E+01  1.858234109E+02  1.697112353E+02  0.00000E+00  9.000E+00
       6     2     1     2   507     0 -4.421348447E+01  3.912484476E+01  2.325748508E+02  2.921757918E+02  1.667034685E+02  0.00000E+00  9.000E+00
     -24     2     3     3     0     0 -1.277114334E+01  1.868161064E+01 -5.297976236E+00  8.263175793E+01  7.929586488E+01  0.00000E+00  9.000E+00
      24     2     4     4     0     0 -3.360044157E+01  2.885864988E+01  4.751020986E+01  1.064622617E+02  8.435153690E+01  0.00000E+00  9.000E+00
     -11     1     6     6     0     0  2.672433193E+00 -2.724576793E+01  6.733557748E+00  2.819245590E+01  0.000000000E+00  0.00000E+00  9.000E+00
      12     1     6     6     0     0 -3.627287476E+01  5.610441781E+01  4.077665211E+01  7.826980579E+01  9.536743164E-07  0.00000E+00  9.000E+00
      13     1     5     5     0     0  3.101225336E+01  2.213572808E+01  1.790898010E+00  3.814390687E+01  0.000000000E+00  0.00000E+00  9.000E+00
     -14     1     5     5     0     0 -4.378339669E+01 -3.454117442E+00 -7.088874246E+00  4.448785105E+01  8.128989754E-07  0.00000E+00  9.000E+00
       5     1     4     4   507     0 -1.061304290E+01  1.026619488E+01  1.850646409E+02  1.857135301E+02  4.750000000E+00  0.00000E+00  9.000E+00
      -5     1     3     3     0   511  6.607229647E+01 -6.868499371E+01  3.056883327E+01  1.002007624E+02  4.750000000E+00  0.00000E+00  9.000E+00
       2     1     1     2   501     0 -6.503132207E+00  1.167455717E+01  4.765304501E+02  4.767177948E+02  0.000000000E+00  0.00000E+00  9.000E+00
      21     1     3     3   511   502 -2.584536463E+00 -7.960188601E-01 -1.277478557E+00  2.990890540E+00  7.884953353E-08  0.00000E+00  9.000E+00
#rwgt            1          17   44.314393503920385                1     2978258           0         111           0
<weights>
0.10069E+02
</weights>
</event>
<event>
     15  10001 -1.35503E+01  1.32679E+01 -1.00000E+00  3.61445E-01
      21    -1     0     0   507   512  0.000000000E+00  0.000000000E+00  8.012860185E+01  8.012860185E+01  0.000000000E+00  0.00000E+00  9.000E+00
      21    -1     0     0   501   502  0.000000000E+00  0.000000000E+00 -4.557106558E+02  4.557106558E+02  0.000000000E+00  0.00000E+00  9.000E+00
      -6     2     1     2     0   502  1.886637861E+01 -6.159609257E+01 -1.528047069E+02  2.393092550E+02  1.725387558E+02  0.00000E+00  9.000E+00
       6     2     1     2   507     0 -3.020152195E+01  5.470036221E+01 -2.045351963E+02  2.739731270E+02  1.712377477E+02  0.00000E+00  9.000E+00
     -24     2     3     3     0     0  2.062796118E+01  2.754114806E+01 -1.075505178E+02  1.391550063E+02  8.132019607E+01  0.00000E+00  9.000E+00
      24     2     4     4     0     0  1.522700314E+01  2.474562573E+01 -4.799258958E+01  9.744600019E+01  7.967575969E+01  0.00000E+00  9.000E+00
     -11     1     6     6     0     0  7.725265491E+00  4.226117655E-01 -6.588195002E+01  6.633467921E+01  0.000000000E+00  0.00000E+00  9.000E+00
      12     1     6     6     0     0  7.501737651E+00  2.432301397E+01  1.788936044E+01  3.111132098E+01  2.236564522E-06  0.00000E+00  9.000E+00
      13     1     5     5     0     0 -1.853795162E+01  1.843627215E+01 -2.019283706E+00  2.622268651E+01  0.000000000E+00  0.00000E+00  9.000E+00
     -14     1     5     5     0     0  3.916591280E+01  9.104875909E+00 -1.055312341E+02  1.129323198E+02  1.348699152E-06  0.00000E+00  9.000E+00
       5     1     4     4   511     0  2.138965228E+00  6.183259115E+00 -9.436804261E+01  9.471376791E+01  4.750000000E+00  0.00000E+00  9.000E+00
      -5     1     3     3     0   513 -1.992914417E+00 -6.637466109E+01 -3.434912060E+01  7.491322933E+01  4.750000000E+00  0.00000E+00  9.000E+00
      21     1     4     4   507   511 -4.756749032E+01  2.377147736E+01 -6.217456408E+01  8.181335887E+01  1.907348633E-06  0.00000E+00  9.000E+00
      21     1     1     2   501   512  1.133514334E+01  6.895730366E+00 -1.824215081E+01  2.255687563E+01  4.129530925E-07  0.00000E+00  9.000E+00
      21     1     3     3   513   502  2.313318441E-01 -2.276257955E+01 -1.090506847E+01  2.524101940E+01  3.153981341E-07  0.00000E+00  9.000E+00
#rwgt            1          17  -20.402639576357675                1     2988002           0      100111           0
<weights>
-.13613E+02
</weights>
</event>
<event>
     15  10001  1.35503E+01  9.55627E+00 -1.00000E+00  1.92677E-01
       1    -1     0     0   507     0  0.000000000E+00  0.000000000E+00  3.327622915E+02  3.327622915E+02  0.000000000E+00  0.00000E+00  9.000E+00
      21    -1     0     0   511   502  0.000000000E+00  0.000000000E+00 -3.616071552E+02  3.616071552E+02  0.000000000E+00  0.00000E+00  9.000E+00
      -6     2     1     2     0   502 -1.242649848E+02  2.253704834E+02 -3.805731838E+01  3.126393243E+02  1.733820822E+02  0.00000E+00  9.000E+00
       6     2     1     2   507     0  1.251198760E+02 -2.158525249E+02  7.770908970E+01  3.125700806E+02  1.715052676E+02  0.00000E+00  9.000E+00
     -24     2     3     3     0     0 -9.795492275E+01  2.376938176E+02 -3.078255416E+01  2.710251398E+02  8.008459862E+01  0.00000E+00  9.000E+00
      24     2     4     4     0     0  3.718205940E+01 -2.598077760E+01  9.504430063E+00  9.236107187E+01  7.989197118E+01  0.00000E+00  9.000E+00
     -11     1     6     6     0     0  8.032950576E+00  1.402825068E+01  3.361507879E+01  3.730004871E+01  0.000000000E+00  0.00000E+00  9.000E+00
      12     1     6     6     0     0  2.914910883E+01 -4.000902828E+01 -2.411064872E+01  5.506102316E+01  8.920806376E-07  0.00000E+00  9.000E+00
      13     1     5     5     0     0 -1.103154735E+00 -6.467859705E+00 -2.667138217E-02  6.561316247E+00  0.000000000E+00  0.00000E+00  9.000E+00
     -14     1     5     5     0     0 -9.685176801E+01  2.441616773E+02 -3.075588278E+01  2.644638235E+02  4.498472754E-06  0.00000E+00  9.000E+00
       5     1     4     4   514     0  5.830819713E+01 -1.241693526E+02  4.689786258E+01  1.450511840E+02  4.750000000E+00  0.00000E+00  9.000E+00
      -5     1     3     3     0   512 -2.223860848E+01 -1.864217923E+01  2.237981779E+00  2.948995788E+01  4.750000000E+00  0.00000E+00  9.000E+00
      21     1     3     3   512   502 -4.071453544E+00  6.318844997E+00 -9.512745991E+00  1.212422667E+01  2.064765462E-07  0.00000E+00  9.000E+00
       1     1     1     2   511     0 -8.548912057E-01 -9.517958507E+00 -6.849663496E+01  6.916004174E+01  0.000000000E+00  0.00000E+00  9.000E+00
      21     1     4     4   507   514  2.962961944E+01 -6.570239468E+01  2.130679705E+01  7.515782471E+01  4.129530925E-07  0.00000E+00  9.000E+00
#rwgt            1           4  0.40617949257037000                1     2991953           0      110110           0
<weights>
0.14639E+02
</weights>
</event>
<event>
     15  10001  1.35503E+01  1.91615E+01 -1.00000E+00  3.96042E-01
      21    -1     0     0   511   501  0.000000000E+00  0.000000000E+00  1.399994736E+03  1.399994736E+03  0.000000000E+00  0.00000E+00  9.000E+00
      21    -1     0     0   501   502  0.000000000E+00  0.000000000E+00 -4.044829886E+01  4.044829886E+01  0.000000000E+00  0.00000E+00  9.000E+00
      -6     2     1     2     0   502  8.707755434E+01 -4.095322604E-01  3.821440355E+02  4.293989873E+02  1.754045559E+02  0.00000E+00  9.000E+00
       6     2     1     2   507     0 -1.035531133E+02 -9.374074659E+00  9.697461335E+02  9.904095754E+02  1.723149528E+02  0.00000E+00  9.000E+00
     -24     2     3     3     0     0  6.798874720E+01  5.963778351E+01  3.119501297E+02  3.344938848E+02  7.996337039E+01  0.00000E+00  9.000E+00
      24     2     4     4     0     0 -4.411178570E+01 -2.990911901E+01  2.511693505E+02  2.690464034E+02  8.037113607E+01  0.00000E+00  9.000E+00
     -11     1     6     6     0     0  1.378335968E+01  1.548512939E+01  3.474729874E+01  4.046164858E+01  0.000000000E+00  0.00000E+00  9.000E+00
      12     1     6     6     0     0 -5.789514538E+01 -4.539424840E+01  2.164220517E+02  2.285847548E+02  2.697398305E-06  0.00000E+00  9.000E+00
      13     1     5     5     0     0  1.922339675E+01  6.725660997E+01  1.571306377E+02  1.719971740E+02  0.000000000E+00  0.00000E+00  9.000E+00
     -14     1     5     5     0     0  4.876535045E+01 -7.618826458E+00  1.548194920E+02  1.624967108E+02  3.303624740E-06  0.00000E+00  9.000E+00
       5     1     4     4   513     0 -5.551791125E+01  1.790194652E+01  6.742292876E+02  6.767646658E+02  4.750000000E+00  0.00000E+00  9.000E+00
      -5     1     3     3     0   512  1.998193131E+01 -5.901077257E+01  6.902959276E+01  9.310851752E+01  4.750000000E+00  0.00000E+00  9.000E+00
      21     1     1     2   511   507  1.647555895E+01  9.783606920E+00  7.656268352E+00  2.063447242E+01  1.046057270E-06  0.00000E+00  9.000E+00
      21     1     3     3   512   502 -8.931241627E-01 -1.036543207E+00  1.164313026E+00  1.796584930E+00  4.942156062E-08  0.00000E+00  9.000E+00
      21     1     4     4   507   513 -3.923416335E+00  2.633097837E+00  4.434749545E+01  4.459850617E+01  6.743495762E-07  0.00000E+00  9.000E+00
#rwgt            1          17   19.047458271874586                1     2994025           0       11110           0
<weights>
0.87081E+01
</weights>
</event>
<event>
     15  10001 -1.35503E+01  8.82381E+01 -1.00000E+00  2.86775E-01
       2    -1     0     0   502     0  0.000000000E+00  0.000000000E+00  1.326954387E+03  1.326954387E+03  0.000000000E+00  0.00000E+00  9.000E+00
      21    -1     0     0   507   502  0.000000000E+00  0.000000000E+00 -1.631815910E+02  1.631815910E+02  0.000000000E+00  0.00000E+00  9.000E+00
      -6     2     1     2     0   501  7.307070236E+00  5.715750760E+01  3.831463553E+02  4.238887576E+02  1.719307281E+02  0.00000E+00  9.000E+00
       6     2     1     2   507     0  3.094053379E+01  2.236033698E+01 -8.106865338E+01  2.000460878E+02  1.788547158E+02  0.00000E+00  9.000E+00
     -24     2     3     3     0     0 -6.330504901E+00  4.646992125E+01  3.921301491E+02  4.032417613E+02  8.147598008E+01  0.00000E+00  9.000E+00
      24     2     4     4     0     0  2.888206881E+00  1.375549998E+01 -4.558462175E+01  9.491429513E+01  8.205614030E+01  0.00000E+00  9.000E+00
     -11     1     6     6     0     0 -3.921273836E+01  3.256617030E+00 -1.643723582E+01  4.264301965E+01  0.000000000E+00  0.00000E+00  9.000E+00
      12     1     6     6     0     0  4.210094524E+01  1.049888295E+01 -2.914738593E+01  5.227127548E+01  2.158972058E-06  0.00000E+00  9.000E+00
      13     1     5     5     0     0 -4.275703165E+01  3.476401929E+01  2.541066605E+02  2.600132607E+02  0.000000000E+00  0.00000E+00  9.000E+00
     -14     1     5     5     0     0  3.642652675E+01  1.170590196E+01  1.380234885E+02  1.432285006E+02  0.000000000E+00  0.00000E+00  9.000E+00
       5     1     4     4   512     0  1.814315052E+01  1.194508803E+01 -6.770164516E+01  7.125962599E+01  4.750000000E+00  0.00000E+00  9.000E+00
      -5     1     3     3     0   511  8.898933949E+00  5.657295892E+00 -6.714346446E+00  1.337314363E+01  4.750000000E+00  0.00000E+00  9.000E+00
      21     1     4     4   507   512  9.909176388E+00 -3.340251032E+00  3.221761353E+01  3.387216667E+01  4.768371582E-07  0.00000E+00  9.000E+00
       2     1     1     2   501     0 -3.824760403E+01 -7.951784457E+01  8.616950938E+02  8.662011322E+02  0.000000000E+00  0.00000E+00  9.000E+00
      21     1     3     3   511   501  4.738641189E+00  5.030290456E+00 -2.269447314E+00  7.273852727E+00  2.950279396E-07  0.00000E+00  9.000E+00
#rwgt            1          17  -4.8192579873413006                1     3004794           0      100111           0
<weights>
-.11699E+02
</weights>
</event>
<event>
     14  10001 -1.35503E+01  8.07371E+01 -1.00000E+00  1.88998E-01
      21    -1     0     0   507   501  0.000000000E+00  0.000000000E+00  2.241987319E+02  2.241987319E+02  0.000000000E+00  0.00000E+00  9.000E+00
      21    -1     0     0   511   502  0.000000000E+00  0.000000000E+00 -4.110228130E+02  4.110228130E+02  0.000000000E+00  0.00000E+00  9.000E+00
      -6     2     1     2     0   502 -1.468166843E+00 -3.282711759E+01 -2.770857752E+02  3.275884848E+02  1.716330778E+02  0.00000E+00  9.000E+00
       6     2     1     2   507     0 -7.407449058E+01  4.335333417E+00 -1.041312565E-02  1.865234891E+02  1.711291518E+02  0.00000E+00  9.000E+00
     -24     2     3     3     0     0 -2.242929108E+01  3.346865720E+01 -1.955565551E+02  2.149662923E+02  7.965498405E+01  0.00000E+00  9.000E+00
      24     2     4     4     0     0 -3.015107925E+01  6.741803823E+01  7.588655141E+00  1.091348462E+02  7.999092140E+01  0.00000E+00  9.000E+00
     -11     1     6     6     0     0 -3.133938396E+01  4.512727047E+01  4.127852390E+01  6.872076878E+01  0.000000000E+00  0.00000E+00  9.000E+00
      12     1     6     6     0     0  1.188304714E+00  2.229076775E+01 -3.368986875E+01  4.041407740E+01  8.259061849E-07  0.00000E+00  9.000E+00
      13     1     5     5     0     0  2.350563808E+01 -1.378934675E+00 -2.254003196E+01  3.259554453E+01  0.000000000E+00  0.00000E+00  9.000E+00
     -14     1     5     5     0     0 -4.593492916E+01  3.484759188E+01 -1.730165231E+02  1.823707478E+02  2.697398305E-06  0.00000E+00  9.000E+00
       5     1     4     4   507     0 -4.392341134E+01 -6.308270481E+01 -7.599068267E+00  7.738864289E+01  4.750000000E+00  0.00000E+00  9.000E+00
      -5     1     3     3     0   512  2.400084834E+01 -6.230587536E+01 -5.801737840E+01  8.858127072E+01  4.750000000E+00  0.00000E+00  9.000E+00
      21     1     1     2   511   501  7.554265743E+01  2.849178417E+01  9.027210721E+01  1.211095710E+02  2.861022949E-06  0.00000E+00  9.000E+00
      21     1     3     3   512   502 -3.039724102E+00 -3.989899432E+00 -2.351184167E+01  2.404092175E+01  3.371747881E-07  0.00000E+00  9.000E+00
#rwgt            1          17  -14.882137773881507                1     3008844           0         111           0
<weights>
-.16564E+02
</weights>
</event>
<event>
     15  10001 -1.35503E+01  7.63638E+01 -1.00000E+00  2.95400E-01
      21    -1     0     0   507   501  0.000000000E+00  0.000000000E+00  9.425367715E+02  9.425367715E+02  0.000000000E+00  0.00000E+00  9.000E+00
      21    -1     0     0   501   512  0.000000000E+00  0.000000000E+00 -8.673598392E+01  8.673598392E+01  0.000000000E+00  0.00000E+00  9.000E+00
      -6     2     1     2     0   502 -7.976761165E+01  1.079509427E+02  4.927500862E+02  5.395201166E+02  1.739627283E+02  0.00000E+00  9.000E+00
       6     2     1     2   507     0  1.069075834E+02 -3.657272671E+01  1.250280218E+02  2.397801928E+02  1.705747311E+02  0.00000E+00  9.000E+00
     -24     2     3     3     0     0 -6.637515258E+01  1.016442037E+01  1.579539811E+02  1.899945678E+02  8.148312293E+01  0.00000E+00  9.000E+00
      24     2     4     4     0     0  6.794932886E+01  2.767992502E+01  3.036341904E+01  1.154155405E+02  8.375870237E+01  0.00000E+00  9.000E+00
     -11     1     6     6     0     0 -8.590151019E-01  2.316042595E+01  3.955930094E+01  4.584846265E+01  0.000000000E+00  0.00000E+00  9.000E+00
      12     1     6     6     0     0  6.880834396E+01  4.519499065E+00 -9.195881896E+00  6.956707781E+01  3.897615129E-06  0.00000E+00  9.000E+00
      13     1     5     5     0     0 -3.232102331E+01  2.321326496E+01  1.510453168E+01  4.256349486E+01  0.000000000E+00  0.00000E+00  9.000E+00
     -14     1     5     5     0     0 -3.405412928E+01 -1.304884459E+01  1.428494494E+02  1.474310729E+02  1.907348633E-06  0.00000E+00  9.000E+00
       5     1     4     4   511     0  3.357829063E+01 -6.653618742E+01  8.582433446E+01  1.137670634E+02  4.750000000E+00  0.00000E+00  9.000E+00
      -5     1     3     3     0   513 -1.443065059E+01  9.761904975E+01  3.336537279E+02  3.479728368E+02  4.750000000E+00  0.00000E+00  9.000E+00
      21     1     1     2   502   512 -2.713997175E+01 -7.137821596E+01  2.380226795E+02  2.499724460E+02  5.394796609E-06  0.00000E+00  9.000E+00
      21     1     4     4   507   511  5.379963917E+00  2.283535695E+00  8.840268310E+00  1.059758892E+01  1.685873940E-07  0.00000E+00  9.000E+00
      21     1     3     3   513   502  1.038191519E+00  1.674725577E-01  1.142377240E+00  1.552711965E+00  4.942156062E-08  0.00000E+00  9.000E+00
#rwgt            1          17  -16.646948724262018                1     3019364           0       11011           0
<weights>
-.12407E+02
</weights>
</event>
<event>
     14  10001  1.35503E+01  1.11928E+01 -1.00000E+00  2.12830E-01
      21    -1     0     0   511   501  0.000000000E+00  0.000000000E+00  1.481037806E+02  1.481037806E+02  0.000000000E+00  0.00000E+00  9.000E+00
      21    -1     0     0   501   502  0.000000000E+00  0.000000000E+00 -6.961775915E+02  6.961775915E+02  0.000000000E+00  0.00000E+00  9.000E+00
      -6     2     1     2     0   502 -1.086261909E+02  1.011131266E+02 -4.759276267E+02  5.276229129E+02  1.727869169E+02  0.00000E+00  9.000E+00
       6     2     1     2   507     0  1.197202287E+02 -9.962963443E+01 -1.239922703E+02  2.636179551E+02  1.728043575E+02  0.00000E+00  9.000E+00
     -24     2     3     3     0     0 -1.365735966E+02  7.666461323E+01 -4.206974599E+02  4.568627969E+02  8.489671499E+01  0.00000E+00  9.000E+00
      24     2     4     4     0     0  1.077761234E+02 -1.379783505E+02 -1.052155565E+02  2.190263286E+02  7.904746218E+01  0.00000E+00  9.000E+00
     -11     1     6     6     0     0  5.437439108E+01 -4.662737828E+01 -8.524501734E+01  1.113436114E+02  0.000000000E+00  0.00000E+00  9.000E+00
      12     1     6     6     0     0  5.340173234E+01 -9.135097226E+01 -1.997053918E+01  1.076827172E+02  1.784161275E-06  0.00000E+00  9.000E+00
      13     1     5     5     0     0 -5.055764949E-01  3.345453892E+01 -1.091417182E+02  1.141550544E+02  0.000000000E+00  0.00000E+00  9.000E+00
     -14     1     5     5     0     0 -1.360680201E+02  4.321007431E+01 -3.115557416E+02  3.427077425E+02  3.814697266E-06  0.00000E+00  9.000E+00
       5     1     4     4   507     0  1.194410532E+01  3.834871611E+01 -1.877671377E+01  4.459162656E+01  4.750000000E+00  0.00000E+00  9.000E+00
      -5     1     3     3     0   512  2.983834233E+01  2.731954978E+01 -5.187369181E+01  6.595549163E+01  4.750000000E+00  0.00000E+00  9.000E+00
      21     1     1     2   511   507 -1.109403788E+01 -1.483492178E+00  5.184608613E+01  5.304050407E+01  0.000000000E+00  0.00000E+00  9.000E+00
      21     1     3     3   512   502 -1.890936580E+00 -2.871036404E+00 -3.356474999E+00  4.804624398E+00  1.976862425E-07  0.00000E+00  9.000E+00
#rwgt            1          17   12.546201576523700                1     3024204           0         111           0
<weights>
0.15235E+02
</weights>
</event>
<event>
     14  10001  1.35503E+01  1.34444E+01 -1.00000E+00  7.51593E-01
       2    -1     0     0   507     0  0.000000000E+00  0.000000000E+00  5.387511078E+02  5.387511078E+02  0.000000000E+00  0.00000E+00  9.000E+00
      21    -1     0     0   501   502  0.000000000E+00  0.000000000E+00 -1.579068664E+02  1.579068664E+02  0.000000000E+00  0.00000E+00  9.000E+00
      -6     2     1     2     0   502 -5.110653991E+01  1.409388368E+02  7.622774484E+01  2.415672188E+02  1.734024739E+02  0.00000E+00  9.000E+00
       6     2     1     2   507     0  6.455024557E+01 -1.408061224E+02  1.036714765E+02  2.536964856E+02  1.721076218E+02  0.00000E+00  9.000E+00
     -24     2     3     3     0     0 -6.531240224E+01  1.211146749E+02  1.142446867E+02  1.961507648E+02  8.055308638E+01  0.00000E+00  9.000E+00
      24     2     4     4     0     0  1.106200307E+02 -1.019591181E+02  8.274471146E+01  1.895233463E+02  8.024935245E+01  0.00000E+00  9.000E+00
     -11     1     6     6     0     0  3.903456726E+01  6.435524951E+00  2.847243832E+01  4.874210876E+01  0.000000000E+00  0.00000E+00  9.000E+00
      12     1     6     6     0     0  7.158546341E+01 -1.083946430E+02  5.427227315E+01  1.407812375E+02  5.001110307E-06  0.00000E+00  9.000E+00
      13     1     5     5     0     0  9.469518456E+00  1.234002883E+01  4.390359634E+01  4.657761118E+01  0.000000000E+00  0.00000E+00  9.000E+00
     -14     1     5     5     0     0 -7.478192070E+01  1.087746460E+02  7.034109039E+01  1.495731536E+02  3.693564745E-06  0.00000E+00  9.000E+00
       5     1     4     4   511     0 -4.360947592E+01 -3.530005201E+01  2.003780843E+01  5.976584584E+01  4.750000000E+00  0.00000E+00  9.000E+00
      -5     1     3     3     0   502  1.420586234E+01  1.982416197E+01 -3.801694190E+01  4.541645400E+01  4.750000000E+00  0.00000E+00  9.000E+00
       2     1     1     2   501     0 -1.344370566E+01 -1.327144339E-01  2.009450200E+02  2.013942698E+02  0.000000000E+00  0.00000E+00  9.000E+00
      21     1     4     4   507   511 -2.460309182E+00 -3.546952336E+00  8.889565780E-01  4.407293494E+00  9.002570788E-08  0.00000E+00  9.000E+00
#rwgt            1          17   46.797342214071207                1     3035559           0         110           0
<weights>
0.13512E+02
</weights>
</event>
<event>
     15  10001  1.35503E+01  2.92969E+01 -1.00000E+00  3.29301E-01
      21    -1     0     0   511   501  0.000000000E+00  0.000000000E+00  4.599387254E+02  4.599387254E+02  0.000000000E+00  0.00000E+00  9.000E+00
      21    -1     0     0   507   502  0.000000000E+00  0.000000000E+00 -3.843702539E+02  3.843702539E+02  0.000000000E+00  0.00000E+00  9.000E+00
      -6     2     1     2     0   501 -3.193420555E+02  1.471021692E+02  1.141982533E+02  4.083662058E+02  1.735030847E+02  0.00000E+00  9.000E+00
       6     2     1     2   507     0  2.917196883E+02 -1.568649891E+02 -8.162665600E+01  3.839135605E+02  1.761241311E+02  0.00000E+00  9.000E+00
     -24     2     3     3     0     0 -2.404729033E+02  5.720070651E+01  2.977914860E+01  2.618144883E+02  8.099932425E+01  0.00000E+00  9.000E+00
      24     2     4     4     0     0  2.756775768E+02 -1.696739492E+02 -4.379059719E+01  3.365455148E+02  8.098081092E+01  0.00000E+00  9.000E+00
     -11     1     6     6     0     0  4.596694618E+01 -2.257887521E+01  2.233894259E+01  5.587301767E+01  0.000000000E+00  0.00000E+00  9.000E+00
      12     1     6     6     0     0  2.297106306E+02 -1.470950740E+02 -6.612953978E+01  2.806724971E+02  1.018245530E-05  0.00000E+00  9.000E+00
      13     1     5     5     0     0 -2.092517322E+02  7.096010095E+01  4.322056293E+01  2.251435996E+02  0.000000000E+00  0.00000E+00  9.000E+00
     -14     1     5     5     0     0 -3.122117107E+01 -1.375939444E+01 -1.344141434E+01  3.667088870E+01  8.259061849E-07  0.00000E+00  9.000E+00
       5     1     4     4   512     0  1.390568897E+01  1.425779641E+00 -2.984471101E+01  3.329670117E+01  4.750000000E+00  0.00000E+00  9.000E+00
      -5     1     3     3     0   514 -6.137784235E+01  7.268771014E+01  6.707542248E+01  1.165007190E+02  4.750000000E+00  0.00000E+00  9.000E+00
      21     1     1     2   511   502  2.762236712E+01  9.762819903E+00  4.299687427E+01  5.202921309E+01  6.743495762E-07  0.00000E+00  9.000E+00
      21     1     4     4   507   512  2.136422597E+00  1.138318040E+01 -7.991347808E+00  1.407134454E+01  4.380028980E-07  0.00000E+00  9.000E+00
      21     1     3     3   514   501 -1.749130981E+01  1.721375257E+01  1.734368221E+01  3.005099847E+01  6.307962682E-07  0.00000E+00  9.000E+00
#rwgt            1          17   21.996743419214585                1     3048844           0       11011           0
<weights>
0.12240E+02
</weights>
</event>
<event>
     15  10001  1.35503E+01  1.31578E+02 -1.00000E+00  1.57972E-01
      -1    -1     0     0     0   512  0.000000000E+00  0.000000000E+00  3.206232343E+02  3.206232343E+02  0.000000000E+00  0.00000E+00  9.000E+00
       1    -1     0     0   507     0  0.000000000E+00  0.000000000E+00 -1.636118077E+03  1.636118077E+03  0.000000000E+00  0.00000E+00  9.000E+00
      -6     2     1     2     0   501 -4.448589052E+01  4.954716470E+01 -4.912760656E+02  5.247703914E+02  1.720403298E+02  0.00000E+00  9.000E+00
       6     2     1     2   507     0  1.550588639E+02  2.177243630E+01 -1.101033363E+03  1.125475923E+03  1.729285924E+02  0.00000E+00  9.000E+00
     -24     2     3     3     0     0 -5.723889626E+01  8.925346286E+01 -3.760022409E+02  3.989287643E+02  8.077129384E+01  0.00000E+00  9.000E+00
      24     2     4     4     0     0  7.298206006E+01 -4.672055177E+01 -6.149162168E+02  6.268604259E+02  8.557364602E+01  0.00000E+00  9.000E+00
     -11     1     6     6     0     0  7.160054035E+00  2.155503026E+01 -6.567652806E+01  6.949310787E+01  0.000000000E+00  0.00000E+00  9.000E+00
      12     1     6     6     0     0  6.582200602E+01 -6.827558204E+01 -5.492396887E+02  5.573673180E+02  1.078959322E-05  0.00000E+00  9.000E+00
      13     1     5     5     0     0 -5.371179163E+01  2.322018664E+01 -1.074029526E+02  1.223091487E+02  0.000000000E+00  0.00000E+00  9.000E+00
     -14     1     5     5     0     0 -3.527104630E+00  6.603327621E+01 -2.685992883E+02  2.766196156E+02  5.394796609E-06  0.00000E+00  9.000E+00
       5     1     4     4   513     0  8.149770976E+01  6.586841710E+01 -4.838783548E+02  4.951175111E+02  4.750000000E+00  0.00000E+00  9.000E+00
      -5     1     3     3     0   511  3.258555320E+00 -2.557178347E+01 -9.854452513E+01  1.019711735E+02  4.750000000E+00  0.00000E+00  9.000E+00
      21     1     1     2   501   512 -1.105729734E+02 -7.131960100E+01  2.768145857E+02  3.064949963E+02  1.321449896E-05  0.00000E+00  9.000E+00
      21     1     3     3   511   501  9.494450419E+00 -1.413451469E+01 -1.672929958E+01  2.387045368E+01  5.840038640E-07  0.00000E+00  9.000E+00
      21     1     4     4   507   513  5.790941299E-01  2.624570968E+00 -2.238791151E+00  3.497986363E+00  1.228781231E-07  0.00000E+00  9.000E+00
#rwgt            1           2   1.6059403091272140                1     3058312           0       11110           0
<weights>
0.15684E+02
</weights>
</event>
<event>
     15  10001  1.35503E+01  2.67334E+01 -1.00000E+00  2.64348E-01
      21    -1     0     0   507   511  0.000000000E+00  0.000000000E+00  1.027637561E+02  1.027637561E+02  0.000000000E+00  0.00000E+00  9.000E+00
      21    -1     0     0   501   502  0.000000000E+00  0.000000000E+00 -6.522458091E+02  6.522458091E+02  0.000000000E+00  0.00000E+00  9.000E+00
      -6     2     1     2     0   502  4.731809794E+01 -2.372951627E+01 -3.758652854E+02  4.168287676E+02  1.722481244E+02  0.00000E+00  9.000E+00
       6     2     1     2   507     0 -4.533317665E+01 -2.930113989E+00 -1.545730322E+01  1.777778925E+02  1.711793456E+02  0.00000E+00  9.000E+00
     -24     2     3     3     0     0  9.571725133E+01 -1.190787666E+00 -2.542016353E+02  2.836628807E+02  8.174930149E+01  0.00000E+00  9.000E+00
      24     2     4     4     0     0 -5.402545646E+01 -1.756992047E+01 -5.013973369E+01  1.351925206E+02  1.119623718E+02  0.00000E+00  9.000E+00
     -11     1     6     6     0     0  9.994121872E+00 -4.027298877E+01 -5.287343244E+01  6.721157605E+01  0.000000000E+00  0.00000E+00  9.000E+00
      12     1     6     6     0     0 -6.401957833E+01  2.270306830E+01  2.733698752E+00  6.798094460E+01  8.765125972E-07  0.00000E+00  9.000E+00
      13     1     5     5     0     0  4.713419473E+01 -1.648045588E+01 -4.143555531E+01  6.488561461E+01  0.000000000E+00  0.00000E+00  9.000E+00
     -14     1     5     5     0     0  4.858305659E+01  1.528966822E+01 -2.127660800E+02  2.187772661E+02  5.394796609E-06  0.00000E+00  9.000E+00
       5     1     4     4   512     0  3.139437599E+00  1.310514526E+01  3.387866129E+01  3.676856118E+01  4.750000000E+00  0.00000E+00  9.000E+00
      -5     1     3     3     0   514 -3.892609345E+01 -1.551509490E+01 -9.043672764E+01  9.978638748E+01  4.750000000E+00  0.00000E+00  9.000E+00
      21     1     1     2   501   511 -1.984921290E+00  2.665963026E+01 -1.581594644E+02  1.604029051E+02  2.697398305E-06  0.00000E+00  9.000E+00
      21     1     4     4   507   512  5.552842210E+00  1.534661223E+00  8.037691799E-01  5.816810687E+00  2.439425222E-07  0.00000E+00  9.000E+00
      21     1     3     3   514   502 -9.473059934E+00 -7.023633712E+00 -3.122692242E+01  3.337949938E+01  0.000000000E+00  0.00000E+00  9.000E+00
#rwgt            1          17   11.937007759575938                1     3060192           0       11011           0
<weights>
0.20910E+01
</weights>
</event>
<event>
     14  10001 -1.35503E+01  1.70803E+01 -1.00000E+00  7.50112E-01
      21    -1     0     0   511   501  0.000000000E+00  0.000000000E+00  7.795955250E+02  7.795955250E+02  0.000000000E+00  0.00000E+00  9.000E+00
      21    -1     0     0   507   502  0.000000000E+00  0.000000000E+00 -3.479338888E+02  3.479338888E+02  0.000000000E+00  0.00000E+00  9.000E+00
      -6     2     1     2     0   501  4.391446462E+01 -6.654991432E+01  4.264042905E+02  4.646427002E+02  1.664777722E+02  0.00000E+00  9.000E+00
       6     2     1     2   507     0 -5.623019397E+01  5.471528938E+01  3.070580345E+02  3.606030864E+02  1.720300897E+02  0.00000E+00  9.000E+00
     -24     2     3     3     0     0  5.443834015E+01 -2.250317623E+01  1.298902709E+02  1.646527114E+02  8.227458343E+01  0.00000E+00  9.000E+00
      24     2     4     4     0     0 -7.930257019E+01  3.084519046E+01  1.283979228E+02  1.730358169E+02  7.883555002E+01  0.00000E+00  9.000E+00
     -11     1     6     6     0     0  8.667208127E+00  2.393773814E+01  4.455035826E+01  5.131150188E+01  0.000000000E+00  0.00000E+00  9.000E+00
      12     1     6     6     0     0 -8.796977831E+01  6.907452317E+00  8.384756452E+01  1.217243150E+02  1.907348633E-06  0.00000E+00  9.000E+00
      13     1     5     5     0     0  3.142539749E+01  2.016319656E+01  1.552380251E+01  4.043635181E+01  0.000000000E+00  0.00000E+00  9.000E+00
     -14     1     5     5     0     0  2.301294266E+01 -4.266637279E+01  1.143664684E+02  1.242163596E+02  1.907348633E-06  0.00000E+00  9.000E+00
       5     1     4     4   512     0  2.316173265E+01  3.623417463E+01  1.542681813E+02  1.602205216E+02  4.750000000E+00  0.00000E+00  9.000E+00
      -5     1     3     3     0   501 -1.052387552E+01 -4.404673809E+01  2.965140195E+02  2.999899888E+02  4.750000000E+00  0.00000E+00  9.000E+00
      21     1     4     4   507   512 -8.935643181E-02 -1.236407571E+01  2.439193039E+01  2.734674790E+01  3.371747881E-07  0.00000E+00  9.000E+00
      21     1     1     2   511   502  1.231572934E+01  1.183462494E+01 -3.018006887E+02  3.022836272E+02  0.000000000E+00  0.00000E+00  9.000E+00
#rwgt            1          17  -29.386151664118213                1     3065851           0        1001           0
<weights>
-.13372E+02
</weights>
</event>
<event>
     15  10001  1.35503E+01  2.54394E+01 -1.00000E+00  3.96122E-01
      21    -1     0     0   502   511  0.000000000E+00  0.000000000E+00  1.743117373E+02  1.743117373E+02  0.000000000E+00  0.00000E+00  9.000E+00
      21    -1     0     0   507   502  0.000000000E+00  0.000000000E+00 -2.546023596E+02  2.546023596E+02  0.000000000E+00  0.00000E+00  9.000E+00
      -6     2     1     2     0   501  1.326775532E+01  7.527841069E+01  2.361360371E+01  1.857090159E+02  1.675928515E+02  0.00000E+00  9.000E+00
       6     2     1     2   507     0  1.208917802E+01 -7.323162737E+01 -1.109634509E+02  2.168043984E+02  1.708281014E+02  0.00000E+00  9.000E+00
     -24     2     3     3     0     0  1.888883520E+01  6.314753198E+01 -4.866914899E+01  1.118537497E+02  7.614575743E+01  0.00000E+00  9.000E+00
      24     2     4     4     0     0 -2.287065772E+01 -2.991145377E+01  4.509446430E+00  8.816697553E+01  7.959471349E+01  0.00000E+00  9.000E+00
     -11     1     6     6     0     0 -4.251661913E+01  7.552251106E+00  1.284297395E+01  4.505154136E+01  0.000000000E+00  0.00000E+00  9.000E+00
      12     1     6     6     0     0  1.964596141E+01 -3.746370488E+01 -8.333527515E+00  4.311543417E+01  5.717076687E-07  0.00000E+00  9.000E+00
      13     1     5     5     0     0 -6.556199902E+00  7.046229652E+01 -2.160030709E+01  7.398981183E+01  0.000000000E+00  0.00000E+00  9.000E+00
     -14     1     5     5     0     0  2.544503511E+01 -7.314764537E+00 -2.706884190E+01  3.786393790E+01  0.000000000E+00  0.00000E+00  9.000E+00
       5     1     4     4   512     0  2.585069432E+01 -2.522554267E+01 -7.397544660E+01  8.245917535E+01  4.750000000E+00  0.00000E+00  9.000E+00
      -5     1     3     3     0   513 -6.502468373E+00  1.148490689E+01  6.550051130E+01  6.698555562E+01  4.750000000E+00  0.00000E+00  9.000E+00
      21     1     1     2   501   511 -2.535693334E+01 -2.046783313E+00  7.059224863E+00  2.640068268E+01  2.528810911E-07  0.00000E+00  9.000E+00
      21     1     4     4   507   512  9.109141423E+00 -1.809463093E+01 -4.149745069E+01  4.617824748E+01  8.259061849E-07  0.00000E+00  9.000E+00
      21     1     3     3   513   501  8.813884837E-01  6.459718213E-01  6.782241406E+00  6.869710601E+00  1.685873940E-07  0.00000E+00  9.000E+00
#rwgt            1          17   15.909967761781791                1     3072150           0       11011           0
<weights>
0.38216E+01
</weights>
</event>
<event>
     15  10001  1.35503E+01  3.45376E+01 -1.00000E+00  3.25442E-01
       1    -1     0     0   507     0  0.000000000E+00  0.000000000E+00  9.639310014E+02  9.639310014E+02  0.000000000E+00  0.00000E+00  9.000E+00
      21    -1     0     0   501   502  0.000000000E+00  0.000000000E+00 -1.144914687E+02  1.144914687E+02  0.000000000E+00  0.00000E+00  9.000E+00
      -6     2     1     2     0   502 -5.867818861E+01 -4.146953290E+01  9.835625004E+01  2.145708381E+02  1.766460887E+02  0.00000E+00  9.000E+00
       6     2     1     2   507     0  3.984302630E+01  1.251986593E+01  8.367023499E+01  1.955455474E+02  1.717356663E+02  0.00000E+00  9.000E+00
     -24     2     3     3     0     0 -6.687282540E+01  2.692427558E+01  9.634325570E+01  1.450407443E+02  8.098088166E+01  0.00000E+00  9.000E+00
      24     2     4     4     0     0  6.521423552E+01  5.634752831E+01  9.744099558E+01  1.407931571E+02  5.385188012E+01  0.00000E+00  9.000E+00
     -11     1     6     6     0     0  5.146008916E+01  1.305901545E+01  6.952945954E+01  8.748156608E+01  0.000000000E+00  0.00000E+00  9.000E+00
      12     1     6     6     0     0  1.375414636E+01  4.328851286E+01  2.791153605E+01  5.331159098E+01  1.305872339E-06  0.00000E+00  9.000E+00
      13     1     5     5     0     0 -7.938960489E+00  4.069385329E+01  1.597242406E+01  4.443124036E+01  0.000000000E+00  0.00000E+00  9.000E+00
     -14     1     5     5     0     0 -5.893386491E+01 -1.376957771E+01  8.037083164E+01  1.006095039E+02  1.907348633E-06  0.00000E+00  9.000E+00
       5     1     4     4   511     0 -4.868068581E+00 -1.933610176E+01 -9.269467640E+00  2.249596526E+01  4.750000000E+00  0.00000E+00  9.000E+00
      -5     1     3     3     0   512  5.610618433E+00 -6.329013667E+01  1.018704867E+00  6.372378440E+01  4.750000000E+00  0.00000E+00  9.000E+00
       1     1     1     2   501     0  1.883516231E+01  2.894966697E+01  6.674130477E+02  6.683060847E+02  0.000000000E+00  0.00000E+00  9.000E+00
      21     1     4     4   507   511 -2.050314064E+01 -2.449156062E+01 -4.501292950E+00  3.225642503E+01  6.556510925E-07  0.00000E+00  9.000E+00
      21     1     3     3   512   502  2.584018355E+00 -5.103671814E+00  9.942894684E-01  5.806309361E+00  1.037745794E-07  0.00000E+00  9.000E+00
#rwgt            1          17   84.556894765795278                1     3079517           0       11011           0
<weights>
0.12508E+02
</weights>
</event>
<event>
     15  10001  1.35503E+01  1.47461E+01 -1.00000E+00  2.17032E-01
       4    -1     0     0   511     0  0.000000000E+00  0.000000000E+00  6.030135589E+02  6.030135589E+02  0.000000000E+00  0.00000E+00  9.000E+00
      -4    -1     0     0     0   502  0.000000000E+00  0.000000000E+00 -9.892871811E+01  9.892871811E+01  0.000000000E+00  0.00000E+00  9.000E+00
      -6     2     1     2     0   507  6.736135815E+00 -1.219308549E+02  3.538592022E+02  4.117898355E+02  1.715867849E+02  0.00000E+00  9.000E+00
       6     2     1     2   507     0  7.855198279E+00  1.197997321E+02  1.660960849E+02  2.684886518E+02  1.734490323E+02  0.00000E+00  9.000E+00
     -24     2     3     3     0     0 -5.280095496E+01 -9.874870828E+01  2.833045594E+02  3.150198020E+02  8.022938383E+01  0.00000E+00  9.000E+00
      24     2     4     4     0     0 -1.236434094E+01  6.578892673E+01  1.555189400E+01  1.065815117E+02  8.146592805E+01  0.00000E+00  9.000E+00
     -11     1     6     6     0     0 -3.247133333E+01  7.381226708E+01  2.271740000E+01  8.377779254E+01  0.000000000E+00  0.00000E+00  9.000E+00
      12     1     6     6     0     0  2.010699240E+01 -8.023340350E+00 -7.165505995E+00  2.280371921E+01  5.264139692E-07  0.00000E+00  9.000E+00
      13     1     5     5     0     0  7.395554302E+00  1.059463883E+01  2.793928245E+01  3.078220426E+01  0.000000000E+00  0.00000E+00  9.000E+00
     -14     1     5     5     0     0 -6.019650926E+01 -1.093433471E+02  2.553652770E+02  2.842375977E+02  5.394796609E-06  0.00000E+00  9.000E+00
       5     1     4     4   513     0  1.614697513E+01  5.014698253E+01  1.432403477E+02  1.526951354E+02  4.750000000E+00  0.00000E+00  9.000E+00
      -5     1     3     3     0   512  5.196437164E+01 -2.387679376E+01  5.514422175E+01  7.958545654E+01  4.750000000E+00  0.00000E+00  9.000E+00
      21     1     1     2   511   502 -1.459133409E+01  2.131122766E+00 -1.587044632E+01  2.166378963E+01  3.371747881E-07  0.00000E+00  9.000E+00
      21     1     3     3   512   507  7.572719132E+00  6.946471253E-01  1.541042103E+01  1.718457698E+01  1.685873940E-07  0.00000E+00  9.000E+00
      21     1     4     4   507   513  4.072564086E+00  3.863822888E+00  7.303843234E+00  9.212004751E+00  1.460009660E-07  0.00000E+00  9.000E+00
#rwgt            1          12   4.2519059496154692E-002           1     3091892           0       11110           0
<weights>
0.10468E+02
</weights>
</event>
<event>
     15  10001 -1.35503E+01  1.13883E+02 -1.00000E+00  2.02337E-01
      21    -1     0     0   512   501  0.000000000E+00  0.000000000E+00  1.442707507E+03  1.442707507E+03  0.000000000E+00  0.00000E+00  9.000E+00
      21    -1     0     0   501   502  0.000000000E+00  0.000000000E+00 -1.764107965E+02  1.764107965E+02  0.000000000E+00  0.00000E+00  9.000E+00
      -6     2     1     2     0   502 -2.154712972E+02  6.256523150E+01  5.668710754E+00  2.828887693E+02  1.721964966E+02  0.00000E+00  9.000E+00
       6     2     1     2   507     0  2.507674401E+02  4.571048248E+01  7.178654762E+02  7.816480660E+02  1.751259545E+02  0.00000E+00  9.000E+00
     -24     2     3     3     0     0 -7.111794537E+01  3.248369806E+01  5.598202245E+01  1.248445194E+02  7.961918358E+01  0.00000E+00  9.000E+00
      24     2     4     4     0     0  1.761067906E+02 -9.358505649E+00  5.963176848E+02  6.283868393E+02  9.041048237E+01  0.00000E+00  9.000E+00
     -11     1     6     6     0     0  7.740935536E+01 -2.900769996E+01  1.542021579E+02  1.749627402E+02  0.000000000E+00  0.00000E+00  9.000E+00
      12     1     6     6     0     0  9.869743526E+01  1.964919431E+01  4.421155269E+02  4.534240991E+02  5.394796609E-06  0.00000E+00  9.000E+00
      13     1     5     5     0     0 -1.781674169E+01  4.107230819E+01 -3.016830817E+00  4.487172888E+01  0.000000000E+00  0.00000E+00  9.000E+00
     -14     1     5     5     0     0 -5.330120367E+01 -8.588610129E+00  5.899885327E+01  7.997279052E+01  1.507891493E-06  0.00000E+00  9.000E+00
       5     1     4     4   514     0  6.308915894E+01  4.913920415E+01  1.005016484E+02  1.285225552E+02  4.750000000E+00  0.00000E+00  9.000E+00
      -5     1     3     3     0   511 -1.421528510E+02  3.012473179E+01 -4.484010985E+01  1.521450967E+02  4.750000000E+00  0.00000E+00  9.000E+00
      21     1     1     2   512   507 -3.529614298E+01 -1.082757140E+02  5.427625236E+02  5.545814683E+02  7.629394531E-06  0.00000E+00  9.000E+00
      21     1     3     3   511   502 -2.200500812E+00 -4.319834375E-02 -5.473201847E+00  5.899153192E+00  2.230201594E-07  0.00000E+00  9.000E+00
      21     1     4     4   507   514  1.157149058E+01  5.929783975E+00  2.104614305E+01  2.473867153E+01  2.384185791E-07  0.00000E+00  9.000E+00
#rwgt            1          17  -13.605976668493275                1     3093603           0       11110           0
<weights>
-.14594E+02
</weights>
</event>
<event>
     13  10001  1.35503E+01  1.43805E+02 -1.00000E+00  1.17124E-01
      21    -1     0     0   502   501  0.000000000E+00  0.000000000E+00  1.886923305E+02  1.886923305E+02  0.000000000E+00  0.00000E+00  9.000E+00
      21    -1     0     0   511   502  0.000000000E+00  0.000000000E+00 -3.701225332E+02  3.701225332E+02  0.000000000E+00  0.00000E+00  9.000E+00
      -6     2     1     2     0   501  4.798035405E+00  5.337482834E+01 -1.366832827E+01  1.761845875E+02  1.672790849E+02  0.00000E+00  9.000E+00
       6     2     1     2   507     0 -4.967807229E+01  8.324739080E+01 -7.697548022E+01  2.125655300E+02  1.728028966E+02  0.00000E+00  9.000E+00
     -24     2     3     3     0     0  1.456170871E+01  2.843312053E+01 -7.166586843E+01  1.121244965E+02  8.009631892E+01  0.00000E+00  9.000E+00
      24     2     4     4     0     0 -6.180546417E+01  6.013874221E+01 -1.182174332E+02  1.635293754E+02  7.300624204E+01  0.00000E+00  9.000E+00
     -11     1     6     6     0     0 -6.696389867E+01  1.641318067E+01 -7.340164438E+01  1.007043079E+02  0.000000000E+00  0.00000E+00  9.000E+00
      12     1     6     6     0     0  5.158434498E+00  4.372556154E+01 -4.481578886E+01  6.282506753E+01  4.768371582E-07  0.00000E+00  9.000E+00
      13     1     5     5     0     0 -1.078323856E+01  3.559407778E+01 -7.676345029E+01  8.529855748E+01  0.000000000E+00  0.00000E+00  9.000E+00
     -14     1     5     5     0     0  2.534494728E+01 -7.160957249E+00  5.097581866E+00  2.682593898E+01  5.809542146E-07  0.00000E+00  9.000E+00
       5     1     4     4   507     0  1.212739188E+01  2.310864859E+01  4.124195302E+01  4.903615465E+01  4.750000000E+00  0.00000E+00  9.000E+00
      -5     1     3     3     0   501 -9.763673307E+00  2.494170781E+01  5.799754016E+01  6.406009108E+01  4.750000000E+00  0.00000E+00  9.000E+00
      21     1     1     2   511   507  4.488003688E+01 -1.366222191E+02 -9.078639422E+01  1.700647460E+02  0.000000000E+00  0.00000E+00  9.000E+00
#rwgt            2         113   1.0422273957448540                1     3121963           0           1           0
<weights>
0.13550E+02
</weights>
</event>
<event>
     14  10001  1.35503E+01  5.74536E+01 -1.00000E+00  7.48282E-01
       2    -1     0     0   507     0  0.000000000E+00  0.000000000E+00  6.801362428E+02  6.801362428E+02  0.000000000E+00  0.00000E+00  9.000E+00
      21    -1     0     0   501   502  0.000000000E+00  0.000000000E+00 -2.404685976E+02  2.404685976E+02  0.000000000E+00  0.00000E+00  9.000E+00
      -6     2     1     2     0   502  1.077678597E+02 -4.519556439E+01 -1.038721983E+02  2.327702291E+02  1.724412808E+02  0.00000E+00  9.000E+00
       6     2     1     2   507     0 -5.262860291E+01  6.133798911E+01  5.701506574E+01  1.979292378E+02  1.714442963E+02  0.00000E+00  9.000E+00
     -24     2     3     3     0     0  8.615512351E+01 -9.647291913E+01 -8.158582257E+01  1.726393508E+02  8.011472759E+01  0.00000E+00  9.000E+00
      24     2     4     4     0     0 -7.184290176E+01  4.712472538E+01 -2.379607528E+01  1.084997761E+02  6.183693014E+01  0.00000E+00  9.000E+00
     -11     1     6     6     0     0 -6.568626011E+00  3.836315784E+01 -1.636595701E+01  4.222230780E+01  0.000000000E+00  0.00000E+00  9.000E+00
      12     1     6     6     0     0 -6.527427575E+01  8.761567535E+00 -7.430118271E+00  6.627746825E+01  2.388651956E-06  0.00000E+00  9.000E+00
      13     1     5     5     0     0 -1.195633706E+01 -1.757471207E+01 -2.957046280E+01  3.641753383E+01  0.000000000E+00  0.00000E+00  9.000E+00
     -14     1     5     5     0     0  9.811146057E+01 -7.889820707E+01 -5.201535976E+01  1.362218170E+02  4.156969970E-06  0.00000E+00  9.000E+00
       5     1     4     4   512     0  1.752619177E+01 -4.509955452E+00  3.125321269E+01  3.642571756E+01  4.750000000E+00  0.00000E+00  9.000E+00
      -5     1     3     3     0   502  2.161273623E+01  5.127735474E+01 -2.228637572E+01  6.013087826E+01  4.750000000E+00  0.00000E+00  9.000E+00
       2     1     1     2   501     0 -5.513925684E+01 -1.614242472E+01  4.865247778E+02  4.899053735E+02  0.000000000E+00  0.00000E+00  9.000E+00
      21     1     4     4   507   512  1.688107080E+00  1.872321919E+01  4.955792833E+01  5.300374423E+01  9.536743164E-07  0.00000E+00  9.000E+00
#rwgt            1          17   83.637516007541876                1     3122834           0         110           0
<weights>
0.83234E+01
</weights>
</event>
<event>
     15  10001  1.35503E+01  8.15737E+00 -1.00000E+00  1.84494E-01
      21    -1     0     0   513   501  0.000000000E+00  0.000000000E+00  5.120647646E+02  5.120647646E+02  0.000000000E+00  0.00000E+00  9.000E+00
      21    -1     0     0   507   502  0.000000000E+00  0.000000000E+00 -3.041037112E+02  3.041037112E+02  0.000000000E+00  0.00000E+00  9.000E+00
      -6     2     1     2     0   501 -7.997355942E+01 -4.571015484E+00  3.465053819E+02  3.955479743E+02  1.731345024E+02  0.00000E+00  9.000E+00
       6     2     1     2   507     0  8.523557911E+01 -1.662265919E+00 -1.594259182E+02  3.982021288E+02  3.547963428E+02  0.00000E+00  9.000E+00
     -24     2     3     3     0     0 -1.100738252E+02 -3.174764197E+01  2.589228379E+02  2.977012055E+02  9.198267218E+01  0.00000E+00  9.000E+00
      24     2     4     4     0     0  7.933338125E+01 -2.979931354E+01  8.822441843E+01  1.463554589E+02  8.034044980E+01  0.00000E+00  9.000E+00
     -11     1     6     6     0     0  5.368620512E+01 -2.483312705E+01  5.270954365E+00  5.938582137E+01  0.000000000E+00  0.00000E+00  9.000E+00
      12     1     6     6     0     0  2.564717613E+01 -4.966186494E+00  8.295346407E+01  8.696963753E+01  3.932099939E-06  0.00000E+00  9.000E+00
      13     1     5     5     0     0 -3.417065445E+01 -3.407553943E+01  3.074609527E+01  5.721973775E+01  0.000000000E+00  0.00000E+00  9.000E+00
     -14     1     5     5     0     0 -7.590317071E+01  2.327897459E+00  2.281767427E+02  2.404814677E+02  3.814697266E-06  0.00000E+00  9.000E+00
       5     1     4     4   512     0  7.173375016E+00  3.161932782E+01 -2.452518926E+02  2.474313895E+02  4.750000000E+00  0.00000E+00  9.000E+00
      -5     1     3     3     0   511  1.606499584E+01  2.051813549E+01  4.166100062E+01  4.936881048E+01  4.750000000E+00  0.00000E+00  9.000E+00
      21     1     3     3   511   501  1.403526990E+01  6.658490992E+00  4.592154329E+01  4.847795830E+01  6.743495762E-07  0.00000E+00  9.000E+00
      21     1     1     2   513   502 -5.262019683E+00  6.233281404E+00  2.088158979E+01  2.241837283E+01  4.129530925E-07  0.00000E+00  9.000E+00
      21     1     4     4   507   512 -1.271177159E+00 -3.482280197E+00 -2.398444100E+00  4.415280381E+00  9.424321831E-08  0.00000E+00  9.000E+00
#rwgt            1          17   2666.2167318198763                1     3131493           0      110110           0
<weights>
0.14533E+02
</weights>
</event>
<event>
     13  10001  1.35503E+01  7.75334E+01 -1.00000E+00  1.29011E-01
      21    -1     0     0   507   512  0.000000000E+00  0.000000000E+00  6.864289320E+02  6.864289320E+02  0.000000000E+00  0.00000E+00  9.000E+00
      21    -1     0     0   501   502  0.000000000E+00  0.000000000E+00 -2.171555751E+02  2.171555751E+02  0.000000000E+00  0.00000E+00  9.000E+00
      -6     2     1     2     0   502  5.088465602E+01 -1.277523939E+02 -7.618674311E+01  2.329066957E+02  1.718464045E+02  0.00000E+00  9.000E+00
       6     2     1     2   507     0  2.042997445E+01  1.581768012E+02  1.790098053E+02  2.961150801E+02  1.737882217E+02  0.00000E+00  9.000E+00
     -24     2     3     3     0     0  1.518769790E+01 -1.507875895E+02 -7.770857693E+01  1.901308669E+02  8.451958541E+01  0.00000E+00  9.000E+00
      24     2     4     4     0     0  1.263808394E+01  1.069929674E+02  3.171146777E+01  1.399105311E+02  8.343933901E+01  0.00000E+00  9.000E+00
     -11     1     6     6     0     0 -8.840272457E+00  1.127050775E+02  2.006201152E+01  1.148175475E+02  0.000000000E+00  0.00000E+00  9.000E+00
      12     1     6     6     0     0  2.147835640E+01 -5.712110110E+00  1.164945626E+01  2.509298361E+01  5.331201500E-07  0.00000E+00  9.000E+00
      13     1     5     5     0     0 -4.403530587E+00  1.028924978E+01 -6.367175825E+00  1.287636093E+01  0.000000000E+00  0.00000E+00  9.000E+00
     -14     1     5     5     0     0  1.959122849E+01 -1.610768393E+02 -7.134140111E+01  1.772545060E+02  5.135693366E-06  0.00000E+00  9.000E+00
       5     1     4     4   507     0  7.791890508E+00  5.118383379E+01  1.472983375E+02  1.562045490E+02  4.750000000E+00  0.00000E+00  9.000E+00
      -5     1     3     3     0   502  3.569695812E+01  2.303519556E+01  1.521833821E+00  4.277582882E+01  4.750000000E+00  0.00000E+00  9.000E+00
      21     1     1     2   501   512 -7.131463047E+01 -3.042440725E+01  3.664502948E+02  3.745627312E+02  0.000000000E+00  0.00000E+00  9.000E+00
#rwgt            2         113   2.5961478253355472                1     3137850           0           1           0
<weights>
0.13550E+02
</weights>
</event>
<event>
     15  10001  1.35503E+01  1.95650E+01 -1.00000E+00  4.56830E-01
      21    -1     0     0   502   511  0.000000000E+00  0.000000000E+00  5.660704698E+02  5.660704698E+02  0.000000000E+00  0.00000E+00  9.000E+00
      21    -1     0     0   507   502  0.000000000E+00  0.000000000E+00 -5.685065275E+02  5.685065275E+02  0.000000000E+00  0.00000E+00  9.000E+00
      -6     2     1     2     0   501  5.737091212E+01  4.023445953E+01  4.577634008E+02  4.932931154E+02  1.699427353E+02  0.00000E+00  9.000E+00
       6     2     1     2   507     0 -7.205605278E+01 -5.316257519E+01 -1.355328800E+01  1.942094014E+02  1.718000752E+02  0.00000E+00  9.000E+00
     -24     2     3     3     0     0  9.045264465E+01  4.766045127E+01  3.133144335E+02  3.446171742E+02  1.007068166E+02  0.00000E+00  9.000E+00
      24     2     4     4     0     0  1.115493448E+01 -5.925002894E+01 -5.527707810E+00  1.101732340E+02  9.204665903E+01  0.00000E+00  9.000E+00
     -11     1     6     6     0     0  1.506997353E+01  5.433772009E+00 -3.537084593E+01  3.882945689E+01  0.000000000E+00  0.00000E+00  9.000E+00
      12     1     6     6     0     0 -3.915039045E+00 -6.468380095E+01  2.984313813E+01  7.134377709E+01  1.846782373E-06  0.00000E+00  9.000E+00
      13     1     5     5     0     0  9.314635446E+01  4.025015431E+00  1.599072412E+02  1.851020526E+02  0.000000000E+00  0.00000E+00  9.000E+00
     -14     1     5     5     0     0 -2.693709808E+00  4.363543584E+01  1.534071923E+02  1.595151215E+02  2.697398305E-06  0.00000E+00  9.000E+00
       5     1     4     4   512     0 -6.734765072E+01  6.062893155E+00 -6.735605175E+00  6.812044926E+01  4.750000000E+00  0.00000E+00  9.000E+00
      -5     1     3     3     0   513 -3.214157453E+01 -8.600835761E+00  1.400607770E+02  1.440369360E+02  4.750000000E+00  0.00000E+00  9.000E+00
      21     1     1     2   501   511  1.468514066E+01  1.292811566E+01 -4.466461704E+02  4.470744805E+02  0.000000000E+00  0.00000E+00  9.000E+00
      21     1     4     4   507   512 -1.586333654E+01  2.456059559E-02 -1.289975019E+00  1.591571818E+01  4.061762443E-07  0.00000E+00  9.000E+00
      21     1     3     3   513   501 -9.401580020E-01  1.174844015E+00  4.388190240E+00  4.639005185E+00  5.960464478E-08  0.00000E+00  9.000E+00
#rwgt            1          17   492.76931328266630                1     3139201           0       11011           0
<weights>
0.14597E+02
</weights>
</event>
<event>
     15  10001  1.35503E+01  5.07159E+01 -1.00000E+00  1.40469E-01
      21    -1     0     0   507   501  0.000000000E+00  0.000000000E+00  1.564103485E+03  1.564103485E+03  0.000000000E+00  0.00000E+00  9.000E+00
      21    -1     0     0   501   512  0.000000000E+00  0.000000000E+00 -1.525619305E+02  1.525619305E+02  0.000000000E+00  0.00000E+00  9.000E+00
      -6     2     1     2     0   502  1.023045914E+02 -2.933075066E+01 -5.115785124E+01  2.139626486E+02  1.784274836E+02  0.00000E+00  9.000E+00
       6     2     1     2   507     0 -1.280525477E+02 -1.436305725E+01  5.858421721E+02  6.243800960E+02  1.733081108E+02  0.00000E+00  9.000E+00
     -24     2     3     3     0     0  7.661595669E+01  2.478886318E+01 -2.774839739E+01  1.176262654E+02  8.112627320E+01  0.00000E+00  9.000E+00
      24     2     4     4     0     0 -1.954309629E+01  5.437708845E+00  1.168786194E+02  1.425856349E+02  7.911099989E+01  0.00000E+00  9.000E+00
     -11     1     6     6     0     0 -5.789859950E-01 -2.176877709E+01  1.051930056E+02  1.074233834E+02  0.000000000E+00  0.00000E+00  9.000E+00
      12     1     6     6     0     0 -1.896411029E+01  2.720648593E+01  1.168561382E+01  3.516225144E+01  1.554298974E-06  0.00000E+00  9.000E+00
      13     1     5     5     0     0  6.685632696E+01  3.671166976E+01 -4.953169927E+01  9.094451266E+01  0.000000000E+00  0.00000E+00  9.000E+00
     -14     1     5     5     0     0  9.759629733E+00 -1.192280659E+01  2.178330188E+01  2.668175276E+01  5.840038640E-07  0.00000E+00  9.000E+00
       5     1     4     4   514     0 -8.937840876E+01 -1.709217168E+01  3.887683236E+02  3.993044129E+02  4.750000000E+00  0.00000E+00  9.000E+00
      -5     1     3     3     0   511  7.413370240E+00 -5.706240536E+01  9.562083440E+00  5.852411557E+01  4.750000000E+00  0.00000E+00  9.000E+00
      21     1     1     2   502   512  2.574795630E+01  4.369380791E+01  8.768572334E+02  8.783226707E+02  1.078959322E-05  0.00000E+00  9.000E+00
      21     1     3     3   511   502  1.827526444E+01  2.942791524E+00 -3.297153729E+01  3.781226763E+01  1.348699152E-06  0.00000E+00  9.000E+00
      21     1     4     4   507   514 -1.913104262E+01 -2.708594410E+00  8.019522918E+01  8.249004824E+01  0.000000000E+00  0.00000E+00  9.000E+00
#rwgt            1          17   13.882645677963916                1     3151038           0       11110           0
<weights>
0.12899E+02
</weights>
</event>
<event>
     15  10001  1.35503E+01  5.57534E+01 -1.00000E+00  3.23280E-01
       1    -1     0     0   502     0  0.000000000E+00  0.000000000E+00  2.203454351E+03  2.203454351E+03  0.000000000E+00  0.00000E+00  9.000E+00
      21    -1     0     0   507   502  0.000000000E+00  0.000000000E+00 -3.211539846E+01  3.211539846E+01  0.000000000E+00  0.00000E+00  9.000E+00
      -6     2     1     2     0   501  1.571114169E+01 -4.040837112E+01  6.441647756E+02  6.688653237E+02  1.747938405E+02  0.00000E+00  9.000E+00
       6     2     1     2   507     0 -5.858989434E+01  4.773404574E+00  4.232976535E+02  4.614208344E+02  1.739905799E+02  0.00000E+00  9.000E+00
     -24     2     3     3     0     0  5.288279610E+01  2.475604583E+01  4.451299170E+02  4.558102313E+02  7.882177415E+01  0.00000E+00  9.000E+00
      24     2     4     4     0     0 -1.032478580E+02  2.876546512E+00  3.495039080E+02  3.729247120E+02  7.906620262E+01  0.00000E+00  9.000E+00
     -11     1     6     6     0     0 -5.054631542E+00 -1.732508565E+01  1.422637864E+01  2.298037733E+01  0.000000000E+00  0.00000E+00  9.000E+00
      12     1     6     6     0     0 -9.819322648E+01  2.020163216E+01  3.352775293E+02  3.499443346E+02  5.394796609E-06  0.00000E+00  9.000E+00
      13     1     5     5     0     0  2.141549692E+01 -1.523080215E+01  4.243461499E+01  4.991289805E+01  0.000000000E+00  0.00000E+00  9.000E+00
     -14     1     5     5     0     0  3.146729918E+01  3.998684798E+01  4.026953020E+02  4.058973333E+02  7.629394531E-06  0.00000E+00  9.000E+00
       5     1     4     4   512     0  4.323513071E+01 -7.125266436E-01  5.841651960E+01  7.283430843E+01  4.750000000E+00  0.00000E+00  9.000E+00
      -5     1     3     3     0   511 -3.423344042E+01 -6.382995014E+01  1.869531101E+02  2.005497915E+02  4.750000000E+00  0.00000E+00  9.000E+00
       1     1     1     2   501     0  4.287875264E+01  3.563496655E+01  1.103876523E+03  1.105283591E+03  0.000000000E+00  0.00000E+00  9.000E+00
      21     1     4     4   507   512  1.422832977E+00  2.609384706E+00  1.537722593E+01  1.566181406E+01  0.000000000E+00  0.00000E+00  9.000E+00
      21     1     3     3   511   501 -2.938213987E+00 -1.334466820E+00  1.208174853E+01  1.250530090E+01  0.000000000E+00  0.00000E+00  9.000E+00
#rwgt            1          17   29.513604872928031                1     3160080           0       11011           0
<weights>
0.16634E+02
</weights>
</event>
<event>
     15  10001  1.35503E+01  3.88817E+01 -1.00000E+00  1.37647E-01
      21    -1     0     0   507   513  0.000000000E+00  0.000000000E+00  9.556768596E+02  9.556768596E+02  0.000000000E+00  0.00000E+00  9.000E+00
      21    -1     0     0   501   502  0.000000000E+00  0.000000000E+00 -9.138989181E+01  9.138989181E+01  0.000000000E+00  0.00000E+00  9.000E+00
      -6     2     1     2     0   502  1.141952972E+02 -5.578422668E+01  8.514022670E+01  2.276145061E+02  1.685439389E+02  0.00000E+00  9.000E+00
       6     2     1     2   507     0 -1.221765306E+02  1.773050339E+01  6.165098571E+02  6.522322048E+02  1.734386624E+02  0.00000E+00  9.000E+00
     -24     2     3     3     0     0  3.689205583E+01 -6.806854650E+01  2.066387465E+01  1.149143134E+02  8.236475518E+01  0.00000E+00  9.000E+00
      24     2     4     4     0     0 -1.328485035E+02  6.098983628E+01  5.144906176E+02  5.406315577E+02  7.882512605E+01  0.00000E+00  9.000E+00
     -11     1     6     6     0     0 -1.094947777E+02  1.320493285E+01  3.890747327E+02  4.044040358E+02  0.000000000E+00  0.00000E+00  9.000E+00
      12     1     6     6     0     0 -2.335372583E+01  4.778490342E+01  1.254158850E+02  1.362275218E+02  1.907348633E-06  0.00000E+00  9.000E+00
      13     1     5     5     0     0  6.874768358E+00  1.790658402E+01 -5.876589486E+00  2.006096945E+01  0.000000000E+00  0.00000E+00  9.000E+00
     -14     1     5     5     0     0  3.001728747E+01 -8.597513053E+01  2.654046414E+01  9.485334392E+01  8.920806376E-07  0.00000E+00  9.000E+00
       5     1     4     4   512     0  9.474104348E+00 -2.859171908E+01  7.075607699E+01  7.704693364E+01  4.750000000E+00  0.00000E+00  9.000E+00
      -5     1     3     3     0   511  4.109664072E+01  1.335292540E+01  5.957878636E+00  4.387816443E+01  4.750000000E+00  0.00000E+00  9.000E+00
      21     1     3     3   511   502  3.620660060E+01 -1.068605579E+00  5.851847342E+01  6.882202828E+01  6.743495762E-07  0.00000E+00  9.000E+00
      21     1     1     2   501   513  7.981233494E+00  3.805372330E+01  1.626368839E+02  1.672200405E+02  3.303624740E-06  0.00000E+00  9.000E+00
      21     1     4     4   507   512  1.197868507E+00 -1.466761381E+01  3.126316252E+01  3.455371347E+01  6.743495762E-07  0.00000E+00  9.000E+00
#rwgt            1          17   10.726740138992897                1     3166045           0      110110           0
<weights>
0.16899E+02
</weights>
</event>
<event>
     14  10001  1.35503E+01  6.92950E+00 -1.00000E+00  7.47385E-01
      21    -1     0     0   512   501  0.000000000E+00  0.000000000E+00  1.051853246E+02  1.051853246E+02  0.000000000E+00  0.00000E+00  9.000E+00
      21    -1     0     0   507   502  0.000000000E+00  0.000000000E+00 -4.228469263E+02  4.228469263E+02  0.000000000E+00  0.00000E+00  9.000E+00
      -6     2     1     2     0   501 -5.411250047E+01  1.062811338E+01 -5.969500728E+01  1.903253190E+02  1.721020443E+02  0.00000E+00  9.000E+00
       6     2     1     2   507     0  6.013345163E+01 -1.405829665E+01 -2.674744837E+02  3.259418154E+02  1.757321822E+02  0.00000E+00  9.000E+00
     -24     2     3     3     0     0 -7.812736522E+01 -2.241993910E+01 -8.456451470E+01  1.422634588E+02  8.050587377E+01  0.00000E+00  9.000E+00
      24     2     4     4     0     0  2.892653969E+00 -6.756065647E+01 -1.265194568E+02  1.642907245E+02  8.007158950E+01  0.00000E+00  9.000E+00
     -11     1     6     6     0     0  2.636183747E+01 -6.799113033E+01 -6.228532290E+01  9.590204235E+01  0.000000000E+00  0.00000E+00  9.000E+00
      12     1     6     6     0     0 -2.346918350E+01  4.304738639E-01 -6.423413392E+01  6.838868212E+01  1.907348633E-06  0.00000E+00  9.000E+00
      13     1     5     5     0     0 -9.318759908E+00 -3.135194694E+01  2.171704616E-01  3.270827153E+01  0.000000000E+00  0.00000E+00  9.000E+00
     -14     1     5     5     0     0 -6.880860531E+01  8.932007845E+00 -8.478168516E+01  1.095551873E+02  1.907348633E-06  0.00000E+00  9.000E+00
       5     1     4     4   511     0  4.944566562E+01  4.192001105E+01 -1.199733325E+02  1.364489802E+02  4.750000000E+00  0.00000E+00  9.000E+00
      -5     1     3     3     0   501  2.401486475E+01  3.304805248E+01  2.486950741E+01  4.806186014E+01  4.750000000E+00  0.00000E+00  9.000E+00
      21     1     1     2   512   502 -6.020951154E+00  3.430183269E+00  9.507889250E+00  1.176511658E+01  4.768371582E-07  0.00000E+00  9.000E+00
      21     1     4     4   507   511  7.795132040E+00  1.158234878E+01 -2.098169436E+01  2.520211072E+01  4.129530925E-07  0.00000E+00  9.000E+00
#rwgt            1          17   28.000963099456214                1     3171007           0         110           0
<weights>
0.12583E+02
</weights>
</event>
<event>
     15  10001  1.35503E+01  2.89927E+01 -1.00000E+00  3.93413E-01
      21    -1     0     0   511   501  0.000000000E+00  0.000000000E+00  2.062578864E+02  2.062578864E+02  0.000000000E+00  0.00000E+00  9.000E+00
      21    -1     0     0   507   502  0.000000000E+00  0.000000000E+00 -1.280667543E+03  1.280667543E+03  0.000000000E+00  0.00000E+00  9.000E+00
      -6     2     1     2     0   501 -2.468608909E+01  1.420076247E+02 -1.152172590E+02  2.756238407E+02  2.047386537E+02  0.00000E+00  9.000E+00
       6     2     1     2   507     0  2.734314783E+01 -1.708782971E+02  7.523530196E+00  2.441510003E+02  1.720641372E+02  0.00000E+00  9.000E+00
     -24     2     3     3     0     0 -1.932883208E+01 -1.748931296E+01 -1.188102937E+01  8.536819640E+01  8.041822108E+01  0.00000E+00  9.000E+00
      24     2     4     4     0     0  4.209970285E+01 -1.776274192E+02  4.338807487E+01  2.033044342E+02  7.827057482E+01  0.00000E+00  9.000E+00
     -11     1     6     6     0     0  3.005606113E+01 -1.785118454E+01 -6.356375351E+00  3.553076284E+01  0.000000000E+00  0.00000E+00  9.000E+00
      12     1     6     6     0     0  1.204364172E+01 -1.597762346E+02  4.974445022E+01  1.677736713E+02  6.253660702E-06  0.00000E+00  9.000E+00
      13     1     5     5     0     0 -4.235477796E+01  9.305777891E+00 -2.198871323E+01  4.862127340E+01  0.000000000E+00  0.00000E+00  9.000E+00
     -14     1     5     5     0     0  2.302594588E+01 -2.679509085E+01  1.010768385E+01  3.674692300E+01  2.818486790E-06  0.00000E+00  9.000E+00
       5     1     4     4   512     0 -7.236341188E+00  6.471159963E+00 -2.774676861E+01  2.977727679E+01  4.750000000E+00  0.00000E+00  9.000E+00
      -5     1     3     3     0   513 -4.396199019E+00  1.446162227E+02 -9.196691555E+01  1.715040947E+02  4.750000000E+00  0.00000E+00  9.000E+00
      21     1     1     2   511   502 -2.657058737E+00  2.887067242E+01 -9.667159282E+02  9.671505888E+02  1.525878906E-05  0.00000E+00  9.000E+00
      21     1     4     4   507   512 -7.520213841E+00  2.779621241E-01 -8.117776062E+00  1.106928938E+01  4.129530925E-07  0.00000E+00  9.000E+00
      21     1     3     3   513   501 -9.610579872E-01  1.488071492E+01 -1.136931411E+01  1.875154960E+01  1.685873940E-07  0.00000E+00  9.000E+00
#rwgt            1          17   52.320864200446863                1     3179119           0       11011           0
<weights>
0.12593E+02
</weights>
</event>
<event>
     15  10001 -1.35503E+01  2.65550E+01 -1.00000E+00  2.32540E-01
      21    -1     0     0   507   512  0.000000000E+00  0.000000000E+00  4.760046689E+02  4.760046689E+02  0.000000000E+00  0.00000E+00  9.000E+00
      21    -1     0     0   501   502  0.000000000E+00  0.000000000E+00 -7.099982526E+02  7.099982526E+02  0.000000000E+00  0.00000E+00  9.000E+00
      -6     2     1     2     0   502 -6.302104442E+01 -8.678601039E+01 -2.902076381E+02  3.536672723E+02  1.713376859E+02  0.00000E+00  9.000E+00
       6     2     1     2   507     0  8.890626177E+01  8.085961130E+01 -3.591326537E+02  4.161409177E+02  1.724946384E+02  0.00000E+00  9.000E+00
     -24     2     3     3     0     0 -6.148235824E+01 -1.130675862E+02 -2.849491644E+02  3.229109978E+02  8.069155330E+01  0.00000E+00  9.000E+00
      24     2     4     4     0     0 -1.414006524E+01  4.167337214E+01 -1.068957076E+02  1.407934712E+02  8.037100122E+01  0.00000E+00  9.000E+00
     -11     1     6     6     0     0  8.958488501E+00  6.056867840E+01 -7.894485850E+01  9.990550537E+01  0.000000000E+00  0.00000E+00  9.000E+00
      12     1     6     6     0     0 -2.309855374E+01 -1.889530626E+01 -2.795084905E+01  4.088796579E+01  8.920806376E-07  0.00000E+00  9.000E+00
      13     1     5     5     0     0 -2.532320080E+01 -7.241367356E+00 -1.249917037E+02  1.277365566E+02  0.000000000E+00  0.00000E+00  9.000E+00
     -14     1     5     5     0     0 -3.615915744E+01 -1.058262188E+02 -1.599574608E+02  1.951744412E+02  3.303624740E-06  0.00000E+00  9.000E+00
       5     1     4     4   514     0  8.784567230E+01  3.355220454E+01 -2.120355556E+02  2.320005429E+02  4.750000000E+00  0.00000E+00  9.000E+00
      -5     1     3     3     0   511 -2.244768339E+00  2.688890605E+01 -7.435494774E+00  2.838840144E+01  4.750000000E+00  0.00000E+00  9.000E+00
      21     1     1     2   501   512 -2.588521735E+01  5.926399092E+00  4.153467081E+02  4.161947316E+02  5.394796609E-06  0.00000E+00  9.000E+00
      21     1     3     3   511   502  7.060821591E-01 -6.073302797E-01  2.177021070E+00  2.367873059E+00  1.264405455E-07  0.00000E+00  9.000E+00
      21     1     4     4   507   514  1.520065471E+01  5.634034619E+00 -4.020139049E+01  4.334690355E+01  4.768371582E-07  0.00000E+00  9.000E+00
#rwgt            1          17  -35.300558766482112                1     3188951           0       11110           0
<weights>
-.14552E+02
</weights>
</event>
<event>
     13  10001  1.35503E+01  1.32617E+02 -1.00000E+00  1.18554E-01
      21    -1     0     0   507   501  0.000000000E+00  0.000000000E+00  4.593547213E+02  4.593547213E+02  0.000000000E+00  0.00000E+00  9.000E+00
       2    -1     0     0   501     0  0.000000000E+00  0.000000000E+00 -7.571240364E+02  7.571240364E+02  0.000000000E+00  0.00000E+00  9.000E+00
      -6     2     1     2     0   502  6.659677072E+01  1.856349518E+02 -1.783826741E+02  3.170177056E+02  1.725815229E+02  0.00000E+00  9.000E+00
       6     2     1     2   507     0 -7.307109963E+01 -5.317650202E+01  3.562495547E+02  4.056828140E+02  1.717488700E+02  0.00000E+00  9.000E+00
     -24     2     3     3     0     0  3.733559649E+01  1.688625595E+01 -6.766904351E+01  1.130265069E+02  8.072669569E+01  0.00000E+00  9.000E+00
      24     2     4     4     0     0 -6.022749824E+01  7.193023853E+00  3.161281508E+02  3.319147497E+02  8.094011503E+01  0.00000E+00  9.000E+00
     -11     1     6     6     0     0 -3.086909053E+01 -1.798715771E+01  2.670426267E+02  2.694219796E+02  0.000000000E+00  0.00000E+00  9.000E+00
      12     1     6     6     0     0 -2.935840771E+01  2.518018156E+01  4.908552407E+01  6.249277015E+01  1.168007728E-06  0.00000E+00  9.000E+00
      13     1     5     5     0     0 -1.761050969E+01  1.255477588E+01 -5.107616802E+01  5.546645282E+01  0.000000000E+00  0.00000E+00  9.000E+00
     -14     1     5     5     0     0  5.494610617E+01  4.331480069E+00 -1.659287549E+01  5.756005403E+01  3.371747881E-07  0.00000E+00  9.000E+00
       5     1     4     4   507     0 -1.284360139E+01 -6.036952588E+01  4.012140393E+01  7.376806426E+01  4.750000000E+00  0.00000E+00  9.000E+00
      -5     1     3     3     0   502  2.926117423E+01  1.687486958E+02 -1.107136306E+02  2.039911987E+02  4.750000000E+00  0.00000E+00  9.000E+00
       2     1     1     2   502     0  6.474328906E+00 -1.324584498E+02 -4.756361957E+02  4.937782381E+02  0.000000000E+00  0.00000E+00  9.000E+00
#rwgt            2          94  0.81942406902870701                1     3206623           0           1           0
<weights>
0.13550E+02
</weights>
</event>
<event>
     15  10001  1.35503E+01  7.55860E+01 -1.00000E+00  1.80077E-01
      21    -1     0     0   511   501  0.000000000E+00  0.000000000E+00  2.256870443E+02  2.256870443E+02  0.000000000E+00  0.00000E+00  9.000E+00
      21    -1     0     0   501   502  0.000000000E+00  0.000000000E+00 -1.887398821E+03  1.887398821E+03  0.000000000E+00  0.00000E+00  9.000E+00
      -6     2     1     2     0   502  1.196335206E+01  1.966872021E+01 -4.427867506E+02  4.795165789E+02  1.826090432E+02  0.00000E+00  9.000E+00
       6     2     1     2   507     0  6.293300176E+01 -2.985612597E+01  1.654497957E+02  2.471325246E+02  1.698496360E+02  0.00000E+00  9.000E+00
     -24     2     3     3     0     0 -3.343983749E+01 -1.838208971E+01 -1.157159367E+02  1.464143721E+02  8.118415122E+01  0.00000E+00  9.000E+00
      24     2     4     4     0     0  6.850189439E+01 -5.579925327E+01  5.481159781E+01  1.323431655E+02  8.188000974E+01  0.00000E+00  9.000E+00
     -11     1     6     6     0     0  6.907665807E+01 -6.353644788E+01  6.878467485E+01  1.163606308E+02  0.000000000E+00  0.00000E+00  9.000E+00
      12     1     6     6     0     0 -5.747636762E-01  7.737194610E+00 -1.397307705E+01  1.598253471E+01  1.052827938E-06  0.00000E+00  9.000E+00
      13     1     5     5     0     0 -1.608964045E+01  3.152318064E+01 -5.977369305E+01  6.946568813E+01  0.000000000E+00  0.00000E+00  9.000E+00
     -14     1     5     5     0     0 -1.735019704E+01 -4.990527034E+01 -5.594224363E+01  7.694868399E+01  1.907348633E-06  0.00000E+00  9.000E+00
       5     1     4     4   513     0 -4.665996859E+00  2.568150884E+01  8.304093452E+01  8.717609035E+01  4.750000000E+00  0.00000E+00  9.000E+00
      -5     1     3     3     0   512  3.600609018E+01  1.830883115E+01 -2.330650513E+02  2.365872618E+02  4.750000000E+00  0.00000E+00  9.000E+00
      21     1     1     2   511   507 -7.489635382E+01  1.018740576E+01 -1.384374822E+03  1.386436762E+03  2.642899792E-05  0.00000E+00  9.000E+00
      21     1     3     3   512   502  9.397099359E+00  1.974197876E+01 -9.400576259E+01  9.651494497E+01  0.000000000E+00  0.00000E+00  9.000E+00
      21     1     4     4   507   513 -9.028957761E-01  2.616184692E-01  2.759726337E+01  2.761326874E+01  3.371747881E-07  0.00000E+00  9.000E+00
#rwgt            1          17   53.272435526439956                1     3210517           0       11110           0
<weights>
0.10934E+02
</weights>
</event>
<event>
     15  10001  1.35503E+01  7.49673E+01 -1.00000E+00  4.31600E-01
      21    -1     0     0   512   501  0.000000000E+00  0.000000000E+00  4.847592674E+02  4.847592674E+02  0.000000000E+00  0.00000E+00  9.000E+00
      21    -1     0     0   507   502  0.000000000E+00  0.000000000E+00 -5.143346731E+02  5.143346731E+02  0.000000000E+00  0.00000E+00  9.000E+00
      -6     2     1     2     0   501  7.112563675E+01  2.667086738E+02 -2.525400215E+02  4.119516689E+02  1.724393868E+02  0.00000E+00  9.000E+00
       6     2     1     2   507     0 -1.200787535E+02 -2.099311410E+02 -5.233135851E+01  3.018214532E+02  1.728225319E+02  0.00000E+00  9.000E+00
     -24     2     3     3     0     0  6.911369903E+01  2.851267159E+02 -2.246342300E+02  3.778175935E+02  7.881401621E+01  0.00000E+00  9.000E+00
      24     2     4     4     0     0 -1.219048442E+02 -2.315528169E+02 -4.368298051E+01  2.771069927E+02  8.001615206E+01  0.00000E+00  9.000E+00
     -11     1     6     6     0     0 -3.074489754E+01 -2.680162064E+01  1.809557964E+01  4.462090986E+01  0.000000000E+00  0.00000E+00  9.000E+00
      12     1     6     6     0     0 -9.115994670E+01 -2.047511962E+02 -6.177856015E+01  2.324860829E+02  7.008046368E-06  0.00000E+00  9.000E+00
      13     1     5     5     0     0  4.885780442E+01  2.779515851E+02 -2.109572492E+02  3.523451854E+02  0.000000000E+00  0.00000E+00  9.000E+00
     -14     1     5     5     0     0  2.025589460E+01  7.175130799E+00 -1.367698082E+01  2.547240806E+01  4.129530925E-07  0.00000E+00  9.000E+00
       5     1     4     4   514     0  1.031377544E+00  2.180012871E+01 -8.402551883E+00  2.386366966E+01  4.750000000E+00  0.00000E+00  9.000E+00
      -5     1     3     3     0   511  1.988341011E+00 -1.644888666E+01 -2.683204488E+01  3.189107250E+01  4.750000000E+00  0.00000E+00  9.000E+00
      21     1     1     2   512   502  4.895311671E+01 -5.677753275E+01  2.752959744E+02  2.853208184E+02  9.344061824E-06  0.00000E+00  9.000E+00
      21     1     3     3   511   501  2.359671574E-02 -1.969155464E+00 -1.073746675E+00  2.243002891E+00  9.884312124E-08  0.00000E+00  9.000E+00
      21     1     4     4   507   514  7.947132326E-01 -1.784528782E-01 -2.458261210E-01  8.507908283E-01  3.977521603E-08  0.00000E+00  9.000E+00
#rwgt            1          17   4.5871955328969891                1     3222211           0       11110           0
<weights>
0.11331E+02
</weights>
</event>
<event>
     14  10001  1.35503E+01  6.85415E+01 -1.00000E+00  7.43942E-01
      21    -1     0     0   511   501  0.000000000E+00  0.000000000E+00  4.122108106E+02  4.122108106E+02  0.000000000E+00  0.00000E+00  9.000E+00
      21    -1     0     0   501   502  0.000000000E+00  0.000000000E+00 -2.834409881E+02  2.834409881E+02  0.000000000E+00  0.00000E+00  9.000E+00
      -6     2     1     2     0   502  1.881434322E+02 -4.112879297E+01  1.494812901E+01  2.583559904E+02  1.715658548E+02  0.00000E+00  9.000E+00
       6     2     1     2   507     0 -2.482211959E+02  8.134861497E+00  1.622789007E+02  3.533551261E+02  1.919517268E+02  0.00000E+00  9.000E+00
     -24     2     3     3     0     0  1.113539977E+02 -5.739927235E+01  6.805715935E+01  1.634640658E+02  7.996458342E+01  0.00000E+00  9.000E+00
      24     2     4     4     0     0 -2.595801514E+02  4.037927422E+01  1.274435436E+02  3.029547393E+02  8.079218065E+01  0.00000E+00  9.000E+00
     -11     1     6     6     0     0 -1.047499125E+02  1.195650334E+01  8.727968006E+00  1.057907347E+02  0.000000000E+00  0.00000E+00  9.000E+00
      12     1     6     6     0     0 -1.548302390E+02  2.842277088E+01  1.187155756E+02  1.971640045E+02  4.672030912E-06  0.00000E+00  9.000E+00
      13     1     5     5     0     0  9.889906145E+01 -6.572037622E+01  2.986889985E+01  1.224432251E+02  0.000000000E+00  0.00000E+00  9.000E+00
     -14     1     5     5     0     0  1.245493629E+01  8.321103872E+00  3.818825949E+01  4.102084069E+01  9.536743164E-07  0.00000E+00  9.000E+00
       5     1     4     4   512     0  8.874173476E+00 -2.393425429E+01  1.842159377E+01  3.183578333E+01  4.750000000E+00  0.00000E+00  9.000E+00
      -5     1     3     3     0   502  7.678943441E+01  1.627047938E+01 -5.310903034E+01  9.489192452E+01  4.750000000E+00  0.00000E+00  9.000E+00
      21     1     1     2   511   507  6.007776377E+01  3.299393147E+01 -4.845720715E+01  8.394068226E+01  0.000000000E+00  0.00000E+00  9.000E+00
      21     1     4     4   507   512  2.484782001E+00 -8.310158441E+00  1.641376335E+01  1.856460348E+01  4.768371582E-07  0.00000E+00  9.000E+00
#rwgt            1          17   100.12559874432145                1     3232841           0         110           0
<weights>
0.12488E+02
</weights>
</event>
<event>
     15  10001  1.35503E+01  2.71652E+01 -1.00000E+00  1.69459E-01
      21    -1     0     0   502   512  0.000000000E+00  0.000000000E+00  1.994639177E+02  1.994639177E+02  0.000000000E+00  0.00000E+00  9.000E+00
      21    -1     0     0   507   502  0.000000000E+00  0.000000000E+00 -4.644580760E+02  4.644580760E+02  0.000000000E+00  0.00000E+00  9.000E+00
      -6     2     1     2     0   501 -3.965770791E+01  4.133835293E+01 -1.193491216E+02  2.179245848E+02  1.731049353E+02  0.00000E+00  9.000E+00
       6     2     1     2   507     0  5.690148258E+01 -2.034785694E+01 -2.662654722E+02  3.223558375E+02  1.713597685E+02  0.00000E+00  9.000E+00
     -24     2     3     3     0     0  1.322619258E+01  7.754036417E+01 -6.535541336E+01  1.300928428E+02  8.040757081E+01  0.00000E+00  9.000E+00
      24     2     4     4     0     0  3.004606460E+01  5.397534340E+01 -1.288796994E+02  1.635647501E+02  7.954462181E+01  0.00000E+00  9.000E+00
     -11     1     6     6     0     0 -1.791650588E+00  6.431650773E+01 -6.507997800E+01  9.151626475E+01  0.000000000E+00  0.00000E+00  9.000E+00
      12     1     6     6     0     0  3.183771518E+01 -1.034116433E+01 -6.379972136E+01  7.204848530E+01  2.023048729E-06  0.00000E+00  9.000E+00
      13     1     5     5     0     0  4.624514969E+01  3.230571993E+01 -3.051302700E+01  6.413515593E+01  0.000000000E+00  0.00000E+00  9.000E+00
     -14     1     5     5     0     0 -3.301895711E+01  4.523464424E+01 -3.484238636E+01  6.595768686E+01  0.000000000E+00  0.00000E+00  9.000E+00
       5     1     4     4   513     0  2.496565805E+01 -7.049689570E+01 -1.256024877E+02  1.462588247E+02  4.750000000E+00  0.00000E+00  9.000E+00
      -5     1     3     3     0   511 -4.446019496E+01 -1.842674960E+01 -4.551801920E+01  6.641315087E+01  4.750000000E+00  0.00000E+00  9.000E+00
      21     1     1     2   501   512 -1.724377467E+01 -2.099049598E+01  1.206204356E+02  1.236415714E+02  4.046097457E-06  0.00000E+00  9.000E+00
      21     1     3     3   511   501 -8.423705521E+00 -1.777526165E+01 -8.475689078E+00  2.141859115E+01  1.685873940E-07  0.00000E+00  9.000E+00
      21     1     4     4   507   513  1.889759934E+00 -3.826304637E+00 -1.178328515E+01  1.253226271E+01  0.000000000E+00  0.00000E+00  9.000E+00
#rwgt            1          17   4.2974215035496321                1     3242987           0       11110           0
<weights>
0.14664E+02
</weights>
</event>
<event>
     15  10001  1.35503E+01  8.18529E+01 -1.00000E+00  2.36280E-01
       2    -1     0     0   502     0  0.000000000E+00  0.000000000E+00  1.574817202E+03  1.574817202E+03  0.000000000E+00  0.00000E+00  9.000E+00
      21    -1     0     0   507   502  0.000000000E+00  0.000000000E+00 -4.830717691E+01  4.830717691E+01  0.000000000E+00  0.00000E+00  9.000E+00
      -6     2     1     2     0   501  3.962624173E+01 -8.367378557E+01  6.952715972E+02  7.213812529E+02  1.685727640E+02  0.00000E+00  9.000E+00
       6     2     1     2   507     0  3.604255567E+01  5.246282866E+01  2.258444920E+02  2.908407538E+02  1.718464294E+02  0.00000E+00  9.000E+00
     -24     2     3     3     0     0  8.589568605E+01 -4.063133282E+01  3.856313641E+02  4.052706844E+02  8.064616884E+01  0.00000E+00  9.000E+00
      24     2     4     4     0     0  3.191404284E+01  3.966662146E+01  2.455800409E+02  2.627622109E+02  7.837394992E+01  0.00000E+00  9.000E+00
     -11     1     6     6     0     0  3.537777311E+01 -1.489795977E+01  1.133939423E+02  1.197151711E+02  0.000000000E+00  0.00000E+00  9.000E+00
      12     1     6     6     0     0 -3.463730275E+00  5.456458123E+01  1.321860986E+02  1.430470399E+02  3.303624740E-06  0.00000E+00  9.000E+00
      13     1     5     5     0     0  3.555447613E+01 -5.707670813E+01  2.673036166E+02  2.756321731E+02  0.000000000E+00  0.00000E+00  9.000E+00
     -14     1     5     5     0     0  5.034120992E+01  1.644537531E+01  1.183277475E+02  1.296385113E+02  1.348699152E-06  0.00000E+00  9.000E+00
       5     1     4     4   511     0  5.212868759E+00  1.432705867E+01 -2.055700309E+01  2.603058752E+01  4.750000000E+00  0.00000E+00  9.000E+00
      -5     1     3     3     0   512 -2.590421626E+01 -2.167118114E+01  1.676091085E+02  1.710439834E+02  4.750000000E+00  0.00000E+00  9.000E+00
       2     1     1     2   501     0 -7.566879740E+01  3.121095692E+01  6.053939360E+02  6.109023723E+02  0.000000000E+00  0.00000E+00  9.000E+00
      21     1     3     3   512   501 -2.036522806E+01 -2.137127162E+01  1.420311246E+02  1.450665851E+02  3.303624740E-06  0.00000E+00  9.000E+00
      21     1     4     4   507   511 -1.084355932E+00 -1.530851477E+00  8.214541703E-01  2.047955318E+00  2.787751993E-08  0.00000E+00  9.000E+00
#rwgt            1          17   16.934572459943155                1     3253719           0       11110           0
<weights>
0.97941E+01
</weights>
</event>
<event>
     15  10001  1.35503E+01  3.74134E+01 -1.00000E+00  1.61970E-01
      21    -1     0     0   507   511  0.000000000E+00  0.000000000E+00  3.825687433E+02  3.825687433E+02  0.000000000E+00  0.00000E+00  9.000E+00
      21    -1     0     0   501   502  0.000000000E+00  0.000000000E+00 -2.119017815E+02  2.119017815E+02  0.000000000E+00  0.00000E+00  9.000E+00
      -6     2     1     2     0   502  1.614206509E+02 -1.163303883E+02 -6.082913755E+00  2.633050028E+02  1.723459803E+02  0.00000E+00  9.000E+00
       6     2     1     2   507     0 -1.462117050E+02  8.214781571E+01  1.391115561E+02  2.780957246E+02  1.727978029E+02  0.00000E+00  9.000E+00
     -24     2     3     3     0     0  1.587117667E+01 -2.588297509E+01  2.261169146E+01  8.866796670E+01  8.018040334E+01  0.00000E+00  9.000E+00
      24     2     4     4     0     0 -5.994636283E+01  1.033690063E+02  5.100887866E+01  1.521291494E+02  7.913693524E+01  0.00000E+00  9.000E+00
     -11     1     6     6     0     0 -1.380144873E+01  8.127011030E+01  5.756997724E+01  1.005465718E+02  0.000000000E+00  0.00000E+00  9.000E+00
      12     1     6     6     0     0 -4.614491410E+01  2.209889602E+01 -6.561098587E+00  5.158257765E+01  4.616955931E-07  0.00000E+00  9.000E+00
      13     1     5     5     0     0  1.886038266E+01  2.237474382E+01  2.739046070E+01  4.008217225E+01  0.000000000E+00  0.00000E+00  9.000E+00
     -14     1     5     5     0     0 -2.989205987E+00 -4.825771891E+01 -4.778769240E+00  4.858579445E+01  3.908537939E-07  0.00000E+00  9.000E+00
       5     1     4     4   512     0 -8.655893991E+01 -2.119827316E+01  8.631836169E+01  1.241581207E+02  4.750000000E+00  0.00000E+00  9.000E+00
      -5     1     3     3     0   513  5.406039542E+01 -3.541804988E+01 -3.261175158E+00  6.488576403E+01  4.750000000E+00  0.00000E+00  9.000E+00
      21     1     1     2   501   511 -1.520894592E+01  3.418257257E+01  3.763831944E+01  5.306979738E+01  9.536743164E-07  0.00000E+00  9.000E+00
      21     1     3     3   513   502  9.148907880E+01 -5.502936331E+01 -2.543343006E+01  1.097512721E+02  1.118282261E-06  0.00000E+00  9.000E+00
      21     1     4     4   507   512  2.935977772E-01 -2.291744981E-02  1.784315774E+00  1.808454491E+00  4.214684851E-08  0.00000E+00  9.000E+00
#rwgt            1          17   16.719056658419763                1     3263811           0       11110           0
<weights>
0.15381E+02
</weights>
</event>
<event>
     15  10001  1.35503E+01  2.81489E+01 -1.00000E+00  2.25949E-01
      21    -1     0     0   507   501  0.000000000E+00  0.000000000E+00  1.935033598E+02  1.935033598E+02  0.000000000E+00  0.00000E+00  9.000E+00
      21    -1     0     0   512   502  0.000000000E+00  0.000000000E+00 -2.595826698E+02  2.595826698E+02  0.000000000E+00  0.00000E+00  9.000E+00
      -6     2     1     2     0   502 -3.531184309E+01  4.248911036E+01  5.461847514E+01  1.896188795E+02  1.729736711E+02  0.00000E+00  9.000E+00
       6     2     1     2   507     0  3.092261170E+01 -7.029366331E+01 -6.400380332E+01  2.001697086E+02  1.734186218E+02  0.00000E+00  9.000E+00
     -24     2     3     3     0     0 -2.723580923E+01 -1.295514696E+01  8.440010970E+01  1.201186649E+02  7.997180753E+01  0.00000E+00  9.000E+00
      24     2     4     4     0     0 -9.263400695E+00 -4.370962048E+01  2.658194314E+01  9.631328807E+01  8.107594120E+01  0.00000E+00  9.000E+00
     -11     1     6     6     0     0  5.186637494E+00  2.332662960E+01  8.844394210E+00  2.548050561E+01  0.000000000E+00  0.00000E+00  9.000E+00
      12     1     6     6     0     0 -1.445003819E+01 -6.703625008E+01  1.773754893E+01  7.083278246E+01  3.371747881E-07  0.00000E+00  9.000E+00
      13     1     5     5     0     0 -3.537054303E+01 -1.508448716E+01  3.311377431E+00  3.859510704E+01  0.000000000E+00  0.00000E+00  9.000E+00
     -14     1     5     5     0     0  8.134733795E+00  2.129340198E+00  8.108873227E+01  8.152355785E+01  9.536743164E-07  0.00000E+00  9.000E+00
       5     1     4     4   513     0  3.257596582E+01 -2.654666853E+01 -8.276756032E+01  9.294595580E+01  4.750000000E+00  0.00000E+00  9.000E+00
      -5     1     3     3     0   511 -5.914113633E+00  5.572391776E+01 -3.330286454E+01  6.535881760E+01  4.750000000E+00  0.00000E+00  9.000E+00
      21     1     1     2   512   501  4.389231385E+00  2.780455296E+01 -5.669398185E+01  6.329744146E+01  6.743495762E-07  0.00000E+00  9.000E+00
      21     1     3     3   511   502 -2.161920220E+00 -2.796604437E-01  3.521229990E+00  4.141397064E+00  5.960464478E-08  0.00000E+00  9.000E+00
      21     1     4     4   507   513  7.610046580E+00 -3.737430382E-02 -7.818186136E+00  1.091046471E+01  1.460009660E-07  0.00000E+00  9.000E+00
#rwgt            1          17   40.231079228727111                1     3272134           0       11110           0
<weights>
0.13455E+02
</weights>
</event>
<event>
     15  10001  1.35503E+01  3.93011E+01 -1.00000E+00  3.86246E-01
      -2    -1     0     0     0   501  0.000000000E+00  0.000000000E+00  3.119171038E+02  3.119171038E+02  0.000000000E+00  0.00000E+00  9.000E+00
      21    -1     0     0   501   502  0.000000000E+00  0.000000000E+00 -2.608620116E+02  2.608620116E+02  0.000000000E+00  0.00000E+00  9.000E+00
      -6     2     1     2     0   502  2.057195494E+00  1.037819516E+02  2.735715955E+01  2.045398379E+02  1.741068797E+02  0.00000E+00  9.000E+00
       6     2     1     2   507     0  2.208496194E+01 -7.277008238E+01 -1.190613323E+02  2.201690660E+02  1.688655866E+02  0.00000E+00  9.000E+00
     -24     2     3     3     0     0 -7.317451916E+00  9.748034476E+01 -3.794663143E+01  1.364582091E+02  8.732086393E+01  0.00000E+00  9.000E+00
      24     2     4     4     0     0  5.216336811E+01 -5.827775432E+01 -1.847539866E+01  1.134774559E+02  8.011541066E+01  0.00000E+00  9.000E+00
     -11     1     6     6     0     0  4.618064772E+01 -7.786390518E+01 -9.198568978E+00  9.099479999E+01  0.000000000E+00  0.00000E+00  9.000E+00
      12     1     6     6     0     0  5.982720388E+00  1.958615086E+01 -9.276829682E+00  2.248265593E+01  1.209842153E-06  0.00000E+00  9.000E+00
      13     1     5     5     0     0  3.667979939E+01  6.949405440E+01 -2.768310671E+01  8.331377844E+01  0.000000000E+00  0.00000E+00  9.000E+00
     -14     1     5     5     0     0 -4.399725131E+01  2.798629035E+01 -1.026352472E+01  5.314443066E+01  1.149612756E-06  0.00000E+00  9.000E+00
       5     1     4     4   511     0 -3.105579206E+01 -1.392323015E+01 -9.844467573E+01  1.042700112E+02  4.750000000E+00  0.00000E+00  9.000E+00
      -5     1     3     3     0   512  9.233934855E+00  5.903316429E+00  6.610520453E+01  6.717570441E+01  4.750000000E+00  0.00000E+00  9.000E+00
      -2     1     1     2     0   507 -2.414215743E+01 -3.101186918E+01  1.427592650E+02  1.480702116E+02  0.000000000E+00  0.00000E+00  9.000E+00
      21     1     3     3   512   502  1.407125546E-01  3.982903723E-01 -8.014135451E-01  9.059243423E-01  1.825012075E-08  0.00000E+00  9.000E+00
      21     1     4     4   507   511  9.773858875E-01 -5.690979050E-01 -2.141257946E+00  2.421598891E+00  4.214684851E-08  0.00000E+00  9.000E+00
#rwgt            1          17   2.2073626150454055                1     3277194           0       11110           0
<weights>
-.38289E+01
</weights>
</event>
<event>
     15  10001  1.35503E+01  1.03067E+01 -1.00000E+00  3.24173E-01
      -1    -1     0     0     0   501  0.000000000E+00  0.000000000E+00  2.699666698E+02  2.699666698E+02  0.000000000E+00  0.00000E+00  9.000E+00
      21    -1     0     0   507   502  0.000000000E+00  0.000000000E+00 -3.845474627E+02  3.845474627E+02  0.000000000E+00  0.00000E+00  9.000E+00
      -6     2     1     2     0   501 -1.788273356E+01  8.036378918E+01  1.170789767E+02  2.235421629E+02  1.717133689E+02  0.00000E+00  9.000E+00
       6     2     1     2   507     0  2.385483612E+01 -7.196368117E+01 -3.066736109E+02  3.552533838E+02  1.625067337E+02  0.00000E+00  9.000E+00
     -24     2     3     3     0     0 -3.250434241E+01  7.536135393E+01  1.003667953E+01  1.151356182E+02  8.012246686E+01  0.00000E+00  9.000E+00
      24     2     4     4     0     0  3.874022933E+01 -8.521177234E+01 -1.614387758E+02  2.049724923E+02  8.479028703E+01  0.00000E+00  9.000E+00
     -11     1     6     6     0     0 -1.524624707E+01 -6.615960857E+01 -7.368075365E+01  1.001917926E+02  0.000000000E+00  0.00000E+00  9.000E+00
      12     1     6     6     0     0  5.398647641E+01 -1.905216378E+01 -8.775802212E+01  1.047806997E+02  1.907348633E-06  0.00000E+00  9.000E+00
      13     1     5     5     0     0  2.431806120E+00  7.937708539E+01  4.555974051E+00  7.954490723E+01  0.000000000E+00  0.00000E+00  9.000E+00
     -14     1     5     5     0     0 -3.493614853E+01 -4.015731460E+00  5.480705483E+00  3.559071095E+01  2.858538343E-07  0.00000E+00  9.000E+00
       5     1     4     4   511     0 -1.019361733E+01  5.151036442E+00 -1.377322128E+02  1.382865429E+02  4.750000000E+00  0.00000E+00  9.000E+00
      -5     1     3     3     0   512  1.409763627E+01  4.894242126E+00  8.975902804E+01  9.111499640E+01  4.750000000E+00  0.00000E+00  9.000E+00
      21     1     4     4   507   511 -4.691775881E+00  8.097054737E+00 -7.502622366E+00  1.199434862E+01  1.884864366E-07  0.00000E+00  9.000E+00
      -1     1     1     2     0   502 -5.972102568E+00 -8.400108018E+00  7.501384133E+01  7.571858567E+01  0.000000000E+00  0.00000E+00  9.000E+00
      21     1     3     3   512   501  5.239725864E-01  1.081931251E-01  1.728326910E+01  1.729154834E+01  3.371747881E-07  0.00000E+00  9.000E+00
#rwgt            1          17   163.95528860565508                1     3289052           0      100111           0
<weights>
0.12380E+02
</weights>
</event>
<event>
     14  10001 -1.35503E+01  7.87044E+01 -1.00000E+00  7.49497E-01
      21    -1     0     0   502   501  0.000000000E+00  0.000000000E+00  8.351508762E+01  8.351508762E+01  0.000000000E+00  0.00000E+00  9.000E+00
       2    -1     0     0   507     0  0.000000000E+00  0.000000000E+00 -2.482161406E+03  2.482161406E+03  0.000000000E+00  0.00000E+00  9.000E+00
      -6     2     1     2     0   501  1.196349189E+02  1.251521775E+01 -1.941387551E+02  2.868547663E+02  1.735703207E+02  0.00000E+00  9.000E+00
       6     2     1     2   507     0 -9.258666770E+01 -8.642581918E+01 -2.755462937E+02  3.482554984E+02  1.712145406E+02  0.00000E+00  9.000E+00
     -24     2     3     3     0     0  8.770318589E+01  2.370992486E+01 -3.855555432E+01  1.275636746E+02  8.082048593E+01  0.00000E+00  9.000E+00
      24     2     4     4     0     0  4.657785524E+00 -2.642875685E+01 -1.840262397E+02  2.017106324E+02  7.811112717E+01  0.00000E+00  9.000E+00
     -11     1     6     6     0     0  1.591152881E+01 -5.200095895E+01 -1.291320108E+02  1.401154977E+02  0.000000000E+00  0.00000E+00  9.000E+00
      12     1     6     6     0     0 -1.125374329E+01  2.557220210E+01 -5.489422890E+01  6.159513475E+01  1.168007728E-06  0.00000E+00  9.000E+00
      13     1     5     5     0     0  2.105104198E+01 -2.480852290E+01  7.132645988E+00  3.330891496E+01  0.000000000E+00  0.00000E+00  9.000E+00
     -14     1     5     5     0     0  6.665214391E+01  4.851844775E+01 -4.568820031E+01  9.425475961E+01  2.611744678E-06  0.00000E+00  9.000E+00
       5     1     4     4   511     0 -6.947592458E+01 -4.465774679E+01 -6.574335865E+01  1.056691542E+02  4.750000000E+00  0.00000E+00  9.000E+00
      -5     1     3     3     0   501  3.193173301E+01 -1.119470710E+01 -1.555832008E+02  1.592910918E+02  4.750000000E+00  0.00000E+00  9.000E+00
       2     1     1     2   502     0 -2.704825120E+01  7.391060143E+01 -1.928961270E+03  1.930566229E+03  0.000000000E+00  0.00000E+00  9.000E+00
      21     1     4     4   507   511 -2.776852865E+01 -1.533931554E+01 -2.577669535E+01  4.087571171E+01  4.768371582E-07  0.00000E+00  9.000E+00
#rwgt            1          17  -20.203657154080695                1     3292816           0         110           0
<weights>
-.16356E+02
</weights>
</event>
<event>
     15  10001  1.35503E+01  4.61027E+01 -1.00000E+00  3.03039E-01
      21    -1     0     0   507   512  0.000000000E+00  0.000000000E+00  2.916577867E+02  2.916577867E+02  0.000000000E+00  0.00000E+00  9.000E+00
      21    -1     0     0   501   502  0.000000000E+00  0.000000000E+00 -1.627866570E+02  1.627866570E+02  0.000000000E+00  0.00000E+00  9.000E+00
      -6     2     1     2     0   502  4.548267090E+00 -2.267181128E+01  7.597756194E+01  1.899714370E+02  1.725742136E+02  0.00000E+00  9.000E+00
       6     2     1     2   507     0 -1.291428416E+01  6.800909456E+01 -1.202079684E+01  1.848530706E+02  1.709799476E+02  0.00000E+00  9.000E+00
     -24     2     3     3     0     0  3.289823557E+01 -4.790937393E+01  1.023121686E+02  1.423890357E+02  8.018263908E+01  0.00000E+00  9.000E+00
      24     2     4     4     0     0 -3.424887050E+00  1.863439248E+00  9.086862930E+00  7.984877802E+01  7.923417203E+01  0.00000E+00  9.000E+00
     -11     1     6     6     0     0 -7.628150789E+00 -4.850837509E+00 -3.444017332E+01  3.560680900E+01  0.000000000E+00  0.00000E+00  9.000E+00
      12     1     6     6     0     0  4.203263739E+00  6.714276756E+00  4.352703625E+01  4.424196902E+01  1.261592536E-06  0.00000E+00  9.000E+00
      13     1     5     5     0     0 -2.404654371E+01 -2.636714548E+01  2.320998348E+01  4.256954261E+01  0.000000000E+00  0.00000E+00  9.000E+00
     -14     1     5     5     0     0  5.694477928E+01 -2.154222845E+01  7.910218516E+01  9.981949304E+01  0.000000000E+00  0.00000E+00  9.000E+00
       5     1     4     4   511     0 -1.220740297E+01  7.192005510E+01 -4.120619997E+01  8.391679468E+01  4.750000000E+00  0.00000E+00  9.000E+00
      -5     1     3     3     0   513 -2.593505363E+01  2.195153545E+01 -2.672061017E+01  4.348620957E+01  4.750000000E+00  0.00000E+00  9.000E+00
      21     1     4     4   507   511  2.718005858E+00 -5.774399790E+00  2.009854020E+01  2.108749788E+01  7.539457465E-07  0.00000E+00  9.000E+00
      21     1     1     2   501   512  8.366017068E+00 -4.533728328E+01  6.491436455E+01  7.961993608E+01  9.536743164E-07  0.00000E+00  9.000E+00
      21     1     3     3   513   502 -2.414914852E+00  3.286027207E+00  3.860034812E-01  4.096191797E+00  6.580174615E-08  0.00000E+00  9.000E+00
#rwgt            1          17   12.645003156964657                1     3303351           0      100111           0
<weights>
0.19819E+02
</weights>
</event>
<event>
     13  10001  1.35503E+01  1.98293E+01 -1.00000E+00  1.66677E-01
      21    -1     0     0   507   501  0.000000000E+00  0.000000000E+00  6.460159711E+01  6.460159711E+01  0.000000000E+00  0.00000E+00  9.000E+00
      21    -1     0     0   501   512  0.000000000E+00  0.000000000E+00 -1.142883703E+03  1.142883703E+03  0.000000000E+00  0.00000E+00  9.000E+00
      -6     2     1     2     0   502  5.692466266E+01 -6.512179666E+01 -8.364188971E+02  8.583264558E+02  1.721814965E+02  0.00000E+00  9.000E+00
       6     2     1     2   507     0 -6.528660157E+01  4.714178463E+01 -1.215090483E+02  2.271820973E+02  1.742485820E+02  0.00000E+00  9.000E+00
     -24     2     3     3     0     0  4.399088484E+01 -9.479847525E+01 -4.068382706E+02  4.275015900E+02  7.948762276E+01  0.00000E+00  9.000E+00
      24     2     4     4     0     0 -1.954776574E+01  6.547613687E+01 -1.387918990E+02  1.747469087E+02  8.126531386E+01  0.00000E+00  9.000E+00
     -11     1     6     6     0     0 -1.250858469E+01  8.424395658E+01 -1.022969336E+02  1.331096222E+02  0.000000000E+00  0.00000E+00  9.000E+00
      12     1     6     6     0     0 -7.039181055E+00 -1.876781970E+01 -3.649496537E+01  4.163728646E+01  8.259061849E-07  0.00000E+00  9.000E+00
      13     1     5     5     0     0  5.760048879E+01 -3.040892808E+01 -2.180866669E+02  2.276056096E+02  0.000000000E+00  0.00000E+00  9.000E+00
     -14     1     5     5     0     0 -1.360960396E+01 -6.438954717E+01 -1.887516037E+02  1.998959805E+02  0.000000000E+00  0.00000E+00  9.000E+00
       5     1     4     4   507     0 -4.573883582E+01 -1.833435224E+01  1.728285068E+01  5.243518859E+01  4.750000000E+00  0.00000E+00  9.000E+00
      -5     1     3     3     0   502  1.293377782E+01  2.967667859E+01 -4.295806264E+02  4.308248658E+02  4.750000000E+00  0.00000E+00  9.000E+00
      21     1     1     2   502   512  8.361938911E+00  1.798001203E+01 -1.203541609E+02  1.219767473E+02  2.336015456E-06  0.00000E+00  9.000E+00
#rwgt            2         113   24.358592190738264                1     3312665           0           1           0
<weights>
0.13550E+02
</weights>
</event>
<event>
     15  10001  1.35503E+01  2.62423E+01 -1.00000E+00  7.05041E-01
      21    -1     0     0   507   511  0.000000000E+00  0.000000000E+00  4.169004927E+02  4.169004927E+02  0.000000000E+00  0.00000E+00  9.000E+00
      -3    -1     0     0     0   502  0.000000000E+00  0.000000000E+00 -1.243225416E+02  1.243225416E+02  0.000000000E+00  0.00000E+00  9.000E+00
      -6     2     1     2     0   502  2.434646297E+01 -6.350820564E+01  2.501537196E+02  3.119915159E+02  1.735966016E+02  0.00000E+00  9.000E+00
       6     2     1     2   507     0  1.284355988E+00  5.787614055E+01  5.520667920E+00  1.839487177E+02  1.745146291E+02  0.00000E+00  9.000E+00
     -24     2     3     3     0     0 -5.025751276E+01 -5.742174663E+01  1.436862842E+02  1.817108597E+02  8.093215496E+01  0.00000E+00  9.000E+00
      24     2     4     4     0     0 -3.980847152E+01  9.026734741E+01  2.212320267E+01  1.286319354E+02  7.952251438E+01  0.00000E+00  9.000E+00
     -11     1     6     6     0     0 -6.138209289E+01  8.314273445E+01  2.307983061E+01  1.058921820E+02  0.000000000E+00  0.00000E+00  9.000E+00
      12     1     6     6     0     0  2.157362137E+01  7.124612958E+00 -9.566279492E-01  2.273975343E+01  3.591767190E-07  0.00000E+00  9.000E+00
      13     1     5     5     0     0 -1.157706866E+01  2.015240189E+01  4.277209901E+01  4.867854018E+01  0.000000000E+00  0.00000E+00  9.000E+00
     -14     1     5     5     0     0 -3.868044410E+01 -7.757414852E+01  1.009141852E+02  1.330323195E+02  2.697398305E-06  0.00000E+00  9.000E+00
       5     1     4     4   513     0  3.726443156E+01 -3.080254313E+01 -1.587956170E+01  5.110927022E+01  4.750000000E+00  0.00000E+00  9.000E+00
      -5     1     3     3     0   512  6.994980648E+01 -6.478052909E+00  9.948642270E+01  1.218813004E+02  4.750000000E+00  0.00000E+00  9.000E+00
      -3     1     1     2     0   511 -2.563081896E+01  5.632065085E+00  3.690356361E+01  4.528280076E+01  0.000000000E+00  0.00000E+00  9.000E+00
      21     1     4     4   507   513  3.828395943E+00 -1.588663726E+00 -7.229730433E-01  4.207512086E+00  1.385888102E-07  0.00000E+00  9.000E+00
      21     1     3     3   512   502  4.654169250E+00  3.915939058E-01  6.981012760E+00  8.399355711E+00  1.884864366E-07  0.00000E+00  9.000E+00
#rwgt            1          16   1.1714180018129901E-002           1     3313392           0       11011           0
<weights>
0.18301E+02
</weights>
</event>
<event>
     15  10001  1.35503E+01  1.11012E+02 -1.00000E+00  1.68549E-01
       2    -1     0     0   502     0  0.000000000E+00  0.000000000E+00  6.315448600E+02  6.315448600E+02  0.000000000E+00  0.00000E+00  9.000E+00
      21    -1     0     0   507   502  0.000000000E+00  0.000000000E+00 -7.397639126E+02  7.397639126E+02  0.000000000E+00  0.00000E+00  9.000E+00
      -6     2     1     2     0   501 -1.463314113E+02  5.327698145E+01 -4.440035113E+02  5.009729816E+02  1.719985221E+02  0.00000E+00  9.000E+00
       6     2     1     2   507     0  8.303634070E+01  3.792249828E+01 -2.254691351E+02  2.982088753E+02  1.725081234E+02  0.00000E+00  9.000E+00
     -24     2     3     3     0     0 -1.402422197E+02  8.030430734E+00 -2.452621180E+02  2.940069911E+02  8.095823768E+01  0.00000E+00  9.000E+00
      24     2     4     4     0     0  5.512201463E+00  6.726037547E+01 -1.287365395E+02  1.704805535E+02  8.908524029E+01  0.00000E+00  9.000E+00
     -11     1     6     6     0     0  3.161329180E+01  5.975731916E+01 -4.199270057E+01  7.958469898E+01  0.000000000E+00  0.00000E+00  9.000E+00
      12     1     6     6     0     0 -2.610109034E+01  7.503056311E+00 -8.674383895E+01  9.089585451E+01  1.348699152E-06  0.00000E+00  9.000E+00
      13     1     5     5     0     0 -9.668810203E+01 -3.192352510E+01 -1.719625180E+02  1.998469618E+02  0.000000000E+00  0.00000E+00  9.000E+00
     -14     1     5     5     0     0 -4.355411764E+01  3.995395583E+01 -7.329959999E+01  9.416002925E+01  1.907348633E-06  0.00000E+00  9.000E+00
       5     1     4     4   513     0  7.283053282E+01 -2.579665558E+01 -9.155175231E+01  1.198917837E+02  4.750000000E+00  0.00000E+00  9.000E+00
      -5     1     3     3     0   511  7.553968865E+00  4.083530514E+01 -1.238206048E+02  1.306854593E+02  4.750000000E+00  0.00000E+00  9.000E+00
       2     1     1     2   501     0  6.329507056E+01 -9.119947973E+01  5.612535938E+02  5.721269157E+02  0.000000000E+00  0.00000E+00  9.000E+00
      21     1     3     3   511   501 -1.364316046E+01  4.411245580E+00 -7.492078845E+01  7.628053131E+01  1.651812370E-06  0.00000E+00  9.000E+00
      21     1     4     4   507   513  4.693606423E+00 -3.541221609E+00 -5.180843277E+00  7.836538062E+00  1.460009660E-07  0.00000E+00  9.000E+00
#rwgt            1          17   22.653694689629550                1     3314114           0       11110           0
<weights>
0.13556E+02
</weights>
</event>
<event>
     13  10001 -1.35503E+01  2.00005E+01 -1.00000E+00  7.51181E-01
      21    -1     0     0   511   501  0.000000000E+00  0.000000000E+00  1.198489580E+03  1.198489580E+03  0.000000000E+00  0.00000E+00  9.000E+00
      21    -1     0     0   507   502  0.000000000E+00  0.000000000E+00 -5.429056270E+01  5.429056270E+01  0.000000000E+00  0.00000E+00  9.000E+00
      -6     2     1     2     0   501 -6.294191536E+01  6.190378533E+01  2.741149371E+02  3.077842723E+02  1.086204224E+02  0.00000E+00  9.000E+00
       6     2     1     2   507     0  5.635538630E+01 -4.301897507E+01  1.966889639E+02  2.713038035E+02  1.728948914E+02  0.00000E+00  9.000E+00
     -24     2     3     3     0     0 -5.067368279E+01  5.842880247E+01  1.742283067E+02  2.069751136E+02  8.063155529E+01  0.00000E+00  9.000E+00
      24     2     4     4     0     0 -3.554342114E+01 -3.321675572E+01  9.720510029E+01  1.354322615E+02  8.078600295E+01  0.00000E+00  9.000E+00
     -11     1     6     6     0     0 -2.433393819E+01  1.130183625E+01  8.322455087E+01  8.744254067E+01  0.000000000E+00  0.00000E+00  9.000E+00
      12     1     6     6     0     0 -1.120948296E+01 -4.451859197E+01  1.398054942E+01  4.798972079E+01  1.155776944E-06  0.00000E+00  9.000E+00
      13     1     5     5     0     0 -2.705068868E+01 -5.050854417E+00  9.916598972E+00  2.925046707E+01  0.000000000E+00  0.00000E+00  9.000E+00
     -14     1     5     5     0     0 -2.362299410E+01  6.347965689E+01  1.643117077E+02  1.777246465E+02  0.000000000E+00  0.00000E+00  9.000E+00
       5     1     4     4   507     0  9.189880744E+01 -9.802219347E+00  9.948386359E+01  1.358715420E+02  4.750000000E+00  0.00000E+00  9.000E+00
      -5     1     3     3     0   501 -1.226823257E+01  3.474982858E+00  9.988663043E+01  1.008091587E+02  4.750000000E+00  0.00000E+00  9.000E+00
      21     1     1     2   511   502  6.586529061E+00 -1.888481026E+01  6.733951161E+02  6.736920668E+02  7.629394531E-06  0.00000E+00  9.000E+00
#rwgt            1          17  -101.48420385826489                1     3321029           0           1           0
<weights>
-.12706E+02
</weights>
</event>
<event>
     15  10001  1.35503E+01  6.50730E+01 -1.00000E+00  1.86981E-01
      21    -1     0     0   502   512  0.000000000E+00  0.000000000E+00  8.458283725E+01  8.458283725E+01  0.000000000E+00  0.00000E+00  9.000E+00
      21    -1     0     0   507   502  0.000000000E+00  0.000000000E+00 -1.563987741E+03  1.563987741E+03  0.000000000E+00  0.00000E+00  9.000E+00
      -6     2     1     2     0   501 -9.208862917E+01  1.468024461E+02 -2.025185518E+02  3.172220632E+02  1.720023249E+02  0.00000E+00  9.000E+00
       6     2     1     2   507     0  1.225333130E+02 -8.929061683E+01 -1.227201154E+03  1.249476003E+03  1.793889174E+02  0.00000E+00  9.000E+00
     -24     2     3     3     0     0  3.927666520E+00  1.124002309E+02 -9.784652822E+01  1.693664180E+02  8.038533431E+01  0.00000E+00  9.000E+00
      24     2     4     4     0     0  3.745046912E+01 -1.098099213E+02 -6.316477844E+02  6.473925548E+02  8.171560420E+01  0.00000E+00  9.000E+00
     -11     1     6     6     0     0 -1.073240629E+01 -7.862129145E+01 -2.774329786E+02  2.885577059E+02  0.000000000E+00  0.00000E+00  9.000E+00
      12     1     6     6     0     0  4.818287541E+01 -3.118862983E+01 -3.542148059E+02  3.588348489E+02  0.000000000E+00  0.00000E+00  9.000E+00
      13     1     5     5     0     0 -2.224458638E+00  1.205174428E+02 -1.024453005E+02  1.581911560E+02  0.000000000E+00  0.00000E+00  9.000E+00
     -14     1     5     5     0     0  6.152125158E+00 -8.117211908E+00  4.598772293E+00  1.117526195E+01  1.254532646E-06  0.00000E+00  9.000E+00
       5     1     4     4   511     0  8.507799653E+01  2.094068693E+01 -5.872336426E+02  5.937530558E+02  4.750000000E+00  0.00000E+00  9.000E+00
      -5     1     3     3     0   513 -7.353066677E+01  2.583629138E+01 -9.197476478E+01  1.206490479E+02  4.750000000E+00  0.00000E+00  9.000E+00
      21     1     1     2   501   512 -3.044468388E+01 -5.751182925E+01 -4.968519829E+01  8.187251193E+01  6.743495762E-07  0.00000E+00  9.000E+00
      21     1     3     3   513   501 -2.248562891E+01  8.565923798E+00 -1.269725879E+01  2.720659734E+01  5.591411304E-07  0.00000E+00  9.000E+00
      21     1     4     4   507   511  4.847392928E-03 -4.213824764E-01 -8.319727054E+00  8.330392844E+00  1.192092896E-07  0.00000E+00  9.000E+00
#rwgt            1          17   4.3409998189026329                1     3339255           0       11110           0
<weights>
0.15490E+02
</weights>
</event>
<event>
     14  10001  1.35503E+01  3.29314E+01 -1.00000E+00  2.90831E-01
      21    -1     0     0   507   511  0.000000000E+00  0.000000000E+00  7.842317241E+01  7.842317241E+01  0.000000000E+00  0.00000E+00  9.000E+00
      21    -1     0     0   501   502  0.000000000E+00  0.000000000E+00 -4.953343939E+02  4.953343939E+02  0.000000000E+00  0.00000E+00  9.000E+00
      -6     2     1     2     0   502 -4.962016861E+01  9.781916815E+00 -2.488223779E+02  3.068425957E+02  1.722845197E+02  0.00000E+00  9.000E+00
       6     2     1     2   507     0  2.139095931E+01  7.176519426E+00 -1.503042866E+02  2.294881449E+02  1.719428816E+02  0.00000E+00  9.000E+00
     -24     2     3     3     0     0  1.131200686E+01 -2.110020214E+01 -2.133778904E+02  2.291964285E+02  8.017293002E+01  0.00000E+00  9.000E+00
      24     2     4     4     0     0 -4.059178260E+01  3.992921657E+01 -6.400754808E+01  1.182034243E+02  8.144352739E+01  0.00000E+00  9.000E+00
     -11     1     6     6     0     0 -2.146964240E+01  6.862259025E+00  1.727144278E+01  2.839610677E+01  0.000000000E+00  0.00000E+00  9.000E+00
      12     1     6     6     0     0 -1.912214020E+01  3.306695755E+01 -8.127899086E+01  8.980731753E+01  0.000000000E+00  0.00000E+00  9.000E+00
      13     1     5     5     0     0  4.175460302E+01 -2.463196948E+01 -9.178808045E+01  1.038038174E+02  0.000000000E+00  0.00000E+00  9.000E+00
     -14     1     5     5     0     0 -3.044259616E+01  3.531767343E+00 -1.215898100E+02  1.253926111E+02  2.697398305E-06  0.00000E+00  9.000E+00
       5     1     4     4   507     0  6.198274191E+01 -3.275269714E+01 -8.629673851E+01  1.112847206E+02  4.750000000E+00  0.00000E+00  9.000E+00
      -5     1     3     3     0   512 -5.324233190E+01  3.007947564E+01 -3.093199202E+01  6.869404189E+01  4.750000000E+00  0.00000E+00  9.000E+00
      21     1     1     2   501   511  2.822920930E+01 -1.695843624E+01 -1.778455693E+01  3.742682571E+01  9.536743164E-07  0.00000E+00  9.000E+00
      21     1     3     3   512   502 -7.689843567E+00  8.026433175E-01 -4.512495517E+00  8.952125232E+00  1.332800375E-07  0.00000E+00  9.000E+00
#rwgt            1          17   2.9642889630174811                1     3349896           0         111           0
<weights>
0.22441E+02
</weights>
</event>
<event>
     15  10001  1.35503E+01  2.67550E+01 -1.00000E+00  1.82066E-01
      21    -1     0     0   512   501  0.000000000E+00  0.000000000E+00  2.205536895E+02  2.205536895E+02  0.000000000E+00  0.00000E+00  9.000E+00
      21    -1     0     0   507   502  0.000000000E+00  0.000000000E+00 -2.580665021E+02  2.580665021E+02  0.000000000E+00  0.00000E+00  9.000E+00
      -6     2     1     2     0   501 -1.725530323E+01  1.964072167E+01  1.287763253E+02  2.162723303E+02  1.717756544E+02  0.00000E+00  9.000E+00
       6     2     1     2   507     0  3.015333155E+01  3.800123228E+00 -1.345511150E+02  2.208372066E+02  1.724569655E+02  0.00000E+00  9.000E+00
     -24     2     3     3     0     0 -3.013945599E+01  6.963305243E+01  6.101184019E+01  1.273236488E+02  8.204704817E+01  0.00000E+00  9.000E+00
      24     2     4     4     0     0 -2.673886053E+01 -1.432074598E+01 -1.374534753E+02  1.598746858E+02  7.580505814E+01  0.00000E+00  9.000E+00
     -11     1     6     6     0     0 -2.765102345E+01  2.797891007E+01 -6.567984416E+01  7.655873847E+01  0.000000000E+00  0.00000E+00  9.000E+00
      12     1     6     6     0     0  9.121629252E-01 -4.229965605E+01 -7.177363117E+01  8.331594730E+01  2.336015456E-06  0.00000E+00  9.000E+00
      13     1     5     5     0     0  3.636586167E+00 -1.414380957E+01  2.720192787E+01  3.087421234E+01  0.000000000E+00  0.00000E+00  9.000E+00
     -14     1     5     5     0     0 -3.377604216E+01  8.377686200E+01  3.380991233E+01  9.644943650E+01  1.907348633E-06  0.00000E+00  9.000E+00
       5     1     4     4   513     0  5.690579676E+01  1.884844646E+01  2.650164233E+00  6.019235424E+01  4.750000000E+00  0.00000E+00  9.000E+00
      -5     1     3     3     0   511  1.904476451E+01 -4.054289729E+01  4.569828968E+01  6.416639117E+01  4.750000000E+00  0.00000E+00  9.000E+00
      21     1     1     2   512   502 -1.289802832E+01 -2.344084490E+01 -3.173802295E+01  4.151065459E+01  1.305872339E-06  0.00000E+00  9.000E+00
      21     1     3     3   511   501 -6.160611757E+00 -9.449433469E+00  2.206619546E+01  2.478229030E+01  6.743495762E-07  0.00000E+00  9.000E+00
      21     1     4     4   507   513 -1.360468085E-02 -7.275772490E-01  2.521961044E-01  7.701666156E-01  7.450580597E-09  0.00000E+00  9.000E+00
#rwgt            1          17   6.1555372240968742                1     3364571           0       11110           0
<weights>
0.20903E+02
</weights>
</event>
<event>
     14  10001  1.35503E+01  4.80191E+01 -1.00000E+00  7.52647E-01
      21    -1     0     0   507   511  0.000000000E+00  0.000000000E+00  3.009671381E+02  3.009671381E+02  0.000000000E+00  0.00000E+00  9.000E+00
      21    -1     0     0   501   502  0.000000000E+00  0.000000000E+00 -6.610259050E+02  6.610259050E+02  0.000000000E+00  0.00000E+00  9.000E+00
      -6     2     1     2     0   502  1.223540685E+02 -1.080717735E+02 -3.186388291E+02  3.974291456E+02  1.725375208E+02  0.00000E+00  9.000E+00
       6     2     1     2   507     0 -1.136844236E+02  1.553017585E+02 -2.442246232E+02  3.561518665E+02  1.736539693E+02  0.00000E+00  9.000E+00
     -24     2     3     3     0     0  1.069397589E+02 -1.049279130E+02 -1.459884320E+02  2.239984479E+02  8.010432821E+01  0.00000E+00  9.000E+00
      24     2     4     4     0     0 -1.444653779E+01  5.468549739E+01 -3.108744781E+01  1.003161874E+02  7.679649715E+01  0.00000E+00  9.000E+00
     -11     1     6     6     0     0  1.270361755E+01  4.110793033E+01 -4.888880036E+01  6.512571409E+01  0.000000000E+00  0.00000E+00  9.000E+00
      12     1     6     6     0     0 -2.715015534E+01  1.357756706E+01  1.780135256E+01  3.519047336E+01  1.215700987E-06  0.00000E+00  9.000E+00
      13     1     5     5     0     0  8.573123815E+00  4.743171213E+00  6.665416030E+00  1.185005890E+01  0.000000000E+00  0.00000E+00  9.000E+00
     -14     1     5     5     0     0  9.836663511E+01 -1.096710843E+02 -1.526538481E+02  2.121483890E+02  1.907348633E-06  0.00000E+00  9.000E+00
       5     1     4     4   512     0 -6.794391408E+01  7.108590183E+01 -1.507870181E+02  1.800801716E+02  4.750000000E+00  0.00000E+00  9.000E+00
      -5     1     3     3     0   502  1.541430957E+01 -3.143860420E+00 -1.726503971E+02  1.734306977E+02  4.750000000E+00  0.00000E+00  9.000E+00
      21     1     1     2   501   511 -8.669644902E+00 -4.722998506E+01  2.028046854E+02  2.084120310E+02  6.031565972E-06  0.00000E+00  9.000E+00
      21     1     4     4   507   512 -3.129397171E+01  2.953035930E+01 -6.235015730E+01  7.575550740E+01  1.348699152E-06  0.00000E+00  9.000E+00
#rwgt            1          17   6.4386289391779616                1     3371792           0         110           0
<weights>
0.48127E+00
</weights>
</event>
<event>
     14  10001  1.35503E+01  1.91289E+01 -1.00000E+00  1.74670E-01
      21    -1     0     0   502   512  0.000000000E+00  0.000000000E+00  1.133162076E+03  1.133162076E+03  0.000000000E+00  0.00000E+00  9.000E+00
      21    -1     0     0   507   502  0.000000000E+00  0.000000000E+00 -2.055999568E+02  2.055999568E+02  0.000000000E+00  0.00000E+00  9.000E+00
      -6     2     1     2     0   501  4.187893816E+02 -7.818061871E+01  6.121500117E+02  7.655454108E+02  1.727292214E+02  0.00000E+00  9.000E+00
       6     2     1     2   507     0 -3.998787034E+02  7.529948952E+01  2.556207880E+02  5.104399022E+02  1.721450433E+02  0.00000E+00  9.000E+00
     -24     2     3     3     0     0  9.483578462E+01  1.927436110E+01  1.362753182E+02  1.815214665E+02  7.080786248E+01  0.00000E+00  9.000E+00
      24     2     4     4     0     0 -4.003462408E+02  4.742337175E+01  2.238744095E+02  4.679229458E+02  7.941059902E+01  0.00000E+00  9.000E+00
     -11     1     6     6     0     0 -2.248416509E+02 -6.447195032E+00  1.481097794E+02  2.693173612E+02  0.000000000E+00  0.00000E+00  9.000E+00
      12     1     6     6     0     0 -1.755045899E+02  5.387056678E+01  7.576463017E+01  1.986055846E+02  9.536743164E-07  0.00000E+00  9.000E+00
      13     1     5     5     0     0  4.305768133E+01  1.313366702E+01  1.179592148E+02  1.262570136E+02  0.000000000E+00  0.00000E+00  9.000E+00
     -14     1     5     5     0     0  5.177810329E+01  6.140694089E+00  1.831610343E+01  5.526445285E+01  1.617033478E-06  0.00000E+00  9.000E+00
       5     1     4     4   507     0  4.675374229E-01  2.787611778E+01  3.174637850E+01  4.251695640E+01  4.750000000E+00  0.00000E+00  9.000E+00
      -5     1     3     3     0   511  1.308669285E+02 -3.595951604E+01  1.832654015E+02  2.280964920E+02  4.750000000E+00  0.00000E+00  9.000E+00
      21     1     1     2   501   512 -1.891067819E+01  2.881129184E+00  5.979131949E+01  6.277671974E+01  1.348699152E-06  0.00000E+00  9.000E+00
      21     1     3     3   511   501  1.930866685E+02 -6.149546377E+01  2.926092919E+02  3.559274523E+02  3.814697266E-06  0.00000E+00  9.000E+00
#rwgt            1          17   9.2420527350304216                1     3381974           0         111           0
<weights>
0.13244E+02
</weights>
</event>
<event>
     15  10001  1.35503E+01  5.95919E+01 -1.00000E+00  2.37368E-01
      21    -1     0     0   507   511  0.000000000E+00  0.000000000E+00  8.921750571E+02  8.921750571E+02  0.000000000E+00  0.00000E+00  9.000E+00
      21    -1     0     0   501   502  0.000000000E+00  0.000000000E+00 -5.708511034E+01  5.708511034E+01  0.000000000E+00  0.00000E+00  9.000E+00
      -6     2     1     2     0   502 -3.651138431E+01 -3.691159835E+01  3.561293233E+02  3.996820721E+02  1.738450934E+02  0.00000E+00  9.000E+00
       6     2     1     2   507     0  6.823204357E+01 -1.353633823E+01  4.413843396E+02  4.791283144E+02  1.729305127E+02  0.00000E+00  9.000E+00
     -24     2     3     3     0     0 -5.452875475E+01 -6.555063870E+01  1.493044990E+02  1.889279555E+02  7.830496556E+01  0.00000E+00  9.000E+00
      24     2     4     4     0     0  6.007903843E+01 -6.624058556E+01  3.032376602E+02  3.263662892E+02  8.102203486E+01  0.00000E+00  9.000E+00
     -11     1     6     6     0     0  7.179572491E+00 -6.607415628E+01  1.446498151E+02  1.591882829E+02  0.000000000E+00  0.00000E+00  9.000E+00
      12     1     6     6     0     0  5.289946594E+01 -1.664292813E-01  1.585878451E+02  1.671780063E+02  4.264961200E-06  0.00000E+00  9.000E+00
      13     1     5     5     0     0 -2.153716153E+01 -4.481222008E+01  1.404164168E+02  1.489589021E+02  0.000000000E+00  0.00000E+00  9.000E+00
     -14     1     5     5     0     0 -3.299159321E+01 -2.073841862E+01  8.888082183E+00  3.996905346E+01  1.469710828E-06  0.00000E+00  9.000E+00
       5     1     4     4   512     0  4.938398394E+00  4.894706495E+01  7.752882446E+01  9.194283043E+01  4.750000000E+00  0.00000E+00  9.000E+00
      -5     1     3     3     0   514  2.028812393E+01  3.091662622E+01  1.914774374E+02  1.950733638E+02  4.750000000E+00  0.00000E+00  9.000E+00
      21     1     1     2   501   511 -3.172065926E+01  5.044793658E+01  3.757628380E+01  7.044978093E+01  1.348699152E-06  0.00000E+00  9.000E+00
      21     1     4     4   507   512  3.214606749E+00  3.757182379E+00  6.061785495E+01  6.081919479E+01  1.348699152E-06  0.00000E+00  9.000E+00
      21     1     3     3   514   502 -2.270753490E+00 -2.277585867E+00  1.534738698E+01  1.568075272E+01  2.920019320E-07  0.00000E+00  9.000E+00
#rwgt            1          17   33.497459316205678                1     3393258           0       11011           0
<weights>
0.13554E+02
</weights>
</event>
<event>
     13  10001  1.35503E+01  2.33332E+00 -1.00000E+00  7.36064E-01
      -2    -1     0     0     0   512  0.000000000E+00  0.000000000E+00  5.967585382E+01  5.967585382E+01  0.000000000E+00  0.00000E+00  9.000E+00
       2    -1     0     0   507     0  0.000000000E+00  0.000000000E+00 -1.081451817E+03  1.081451817E+03  0.000000000E+00  0.00000E+00  9.000E+00
      -6     2     1     2     0   501 -5.426464532E+00 -5.223600974E+01 -1.293265191E+02  2.219901650E+02  1.726158672E+02  0.00000E+00  9.000E+00
       6     2     1     2   507     0  6.203123399E+00  5.443628266E+01 -8.695145745E+02  8.960842491E+02  2.095461729E+02  0.00000E+00  9.000E+00
     -24     2     3     3     0     0 -2.798289217E+01 -6.359208666E+01 -1.534967837E+02  1.867124511E+02  8.045670297E+01  0.00000E+00  9.000E+00
      24     2     4     4     0     0 -1.805629325E+01  1.201738484E+02 -5.695377290E+02  5.879955976E+02  8.122693184E+01  0.00000E+00  9.000E+00
     -11     1     6     6     0     0  2.719017019E+01  8.228764140E+01 -3.147729704E+02  3.264851975E+02  0.000000000E+00  0.00000E+00  9.000E+00
      12     1     6     6     0     0 -4.524646344E+01  3.788620701E+01 -2.547647586E+02  2.615104001E+02  2.697398305E-06  0.00000E+00  9.000E+00
      13     1     5     5     0     0  2.304748425E+01 -1.894526198E+01 -1.708941644E+01  3.438251933E+01  0.000000000E+00  0.00000E+00  9.000E+00
     -14     1     5     5     0     0 -5.103037642E+01 -4.464682469E+01 -1.364073672E+02  1.523299317E+02  1.907348633E-06  0.00000E+00  9.000E+00
       5     1     4     4   507     0  2.425941665E+01 -6.573756575E+01 -2.999768455E+02  3.080886515E+02  4.750000000E+00  0.00000E+00  9.000E+00
      -5     1     3     3     0   501  2.255642764E+01  1.135607692E+01  2.417026460E+01  3.527771396E+01  4.750000000E+00  0.00000E+00  9.000E+00
      21     1     1     2   501   512 -7.766588664E-01 -2.200272912E+00 -2.293486975E+01  2.305325683E+01  0.000000000E+00  0.00000E+00  9.000E+00
#rwgt            1           6   2.6411615492422760                1     3396629           0           1           0
<weights>
0.99988E+01
</weights>
</event>
<event>
     14  10001  1.35503E+01  7.41805E+01 -1.00000E+00  2.92971E-01
      21    -1     0     0   502   511  0.000000000E+00  0.000000000E+00  2.101429302E+02  2.101429302E+02  0.000000000E+00  0.00000E+00  9.000E+00
      21    -1     0     0   507   502  0.000000000E+00  0.000000000E+00 -1.536756530E+03  1.536756530E+03  0.000000000E+00  0.00000E+00  9.000E+00
      -6     2     1     2     0   501 -3.914958805E+01 -2.134317484E+00 -3.257411120E+01  1.794793065E+02  1.720886492E+02  0.00000E+00  9.000E+00
       6     2     1     2   507     0 -6.021869248E+00  6.097555923E+01  7.389147108E+01  1.974793291E+02  1.725799936E+02  0.00000E+00  9.000E+00
     -24     2     3     3     0     0  2.093522381E+01 -6.441521795E+00  3.635891891E+01  8.633847209E+01  7.518366830E+01  0.00000E+00  9.000E+00
      24     2     4     4     0     0 -3.815557867E+00  1.152300376E+01 -2.604120294E+01  8.585708722E+01  8.090708917E+01  0.00000E+00  9.000E+00
     -11     1     6     6     0     0 -1.115756568E+00  4.503798409E+01 -3.111246307E+00  4.515910514E+01  0.000000000E+00  0.00000E+00  9.000E+00
      12     1     6     6     0     0 -2.699801299E+00 -3.351498033E+01 -2.292995663E+01  4.069798207E+01  4.768371582E-07  0.00000E+00  9.000E+00
      13     1     5     5     0     0 -2.141656620E-01  3.287350327E+01  2.153162893E+01  3.929788962E+01  0.000000000E+00  0.00000E+00  9.000E+00
     -14     1     5     5     0     0  2.114938948E+01 -3.931502506E+01  1.482728998E+01  4.704058247E+01  1.192092896E-06  0.00000E+00  9.000E+00
       5     1     4     4   507     0 -2.206311382E+00  4.945255547E+01  9.993267402E+01  1.116222419E+02  4.750000000E+00  0.00000E+00  9.000E+00
      -5     1     3     3     0   513 -5.754239796E+01  3.449173764E+00 -6.947730727E+01  9.040289314E+01  4.750000000E+00  0.00000E+00  9.000E+00
      21     1     1     2   501   511  4.517145730E+01 -5.884124174E+01 -1.367930960E+03  1.369940825E+03  2.157918644E-05  0.00000E+00  9.000E+00
      21     1     3     3   513   501 -2.542413899E+00  8.580305467E-01  5.442771600E-01  2.737941285E+00  4.770699320E-08  0.00000E+00  9.000E+00
#rwgt            1          17   43.524876278098056                1     3397696           0         111           0
<weights>
0.12458E+02
</weights>
</event>
<event>
     15  10001  1.35503E+01  3.17729E+01 -1.00000E+00  5.15908E-01
      -2    -1     0     0     0   501  0.000000000E+00  0.000000000E+00  2.800873167E+02  2.800873167E+02  0.000000000E+00  0.00000E+00  9.000E+00
      21    -1     0     0   507   502  0.000000000E+00  0.000000000E+00 -2.674614243E+02  2.674614243E+02  0.000000000E+00  0.00000E+00  9.000E+00
      -6     2     1     2     0   501 -3.494058727E+00  4.918228666E+01  1.332690782E+02  2.209029681E+02  1.691341726E+02  0.00000E+00  9.000E+00
       6     2     1     2   507     0  6.896166107E+00 -8.077255901E+01 -1.774511045E+02  2.615561480E+02  1.742152711E+02  0.00000E+00  9.000E+00
     -24     2     3     3     0     0 -1.080676537E+00  9.533644348E+01  7.544266846E+01  1.462729584E+02  8.132635993E+01  0.00000E+00  9.000E+00
      24     2     4     4     0     0 -5.902986405E+01 -5.321919757E+01 -1.388155348E+02  1.796163828E+02  8.170363777E+01  0.00000E+00  9.000E+00
     -11     1     6     6     0     0 -6.832617703E+01 -6.660562053E+01 -1.294577387E+02  1.608231366E+02  0.000000000E+00  0.00000E+00  9.000E+00
      12     1     6     6     0     0  9.296312981E+00  1.338642296E+01 -9.357796095E+00  1.879324619E+01  7.633118912E-07  0.00000E+00  9.000E+00
      13     1     5     5     0     0 -3.247731885E+00 -1.406191915E+01  1.673496437E+01  2.209851500E+01  0.000000000E+00  0.00000E+00  9.000E+00
     -14     1     5     5     0     0  2.167055348E+00  1.093983626E+02  5.870770409E+01  1.241744434E+02  3.015782986E-06  0.00000E+00  9.000E+00
       5     1     4     4   511     0  5.344975475E+01 -1.829849741E+01 -2.933610250E+01  6.383479223E+01  4.750000000E+00  0.00000E+00  9.000E+00
      -5     1     3     3     0   512 -3.434059364E+00 -4.565191700E+01  5.614025364E+01  7.259601138E+01  4.750000000E+00  0.00000E+00  9.000E+00
      -2     1     1     2     0   502 -3.402107380E+00  3.159027235E+01  5.680791870E+01  6.508962489E+01  0.000000000E+00  0.00000E+00  9.000E+00
      21     1     4     4   507   511  1.247627541E+01 -9.254864040E+00 -9.299467147E+00  1.810497295E+01  6.848052319E-07  0.00000E+00  9.000E+00
      21     1     3     3   512   501  1.020677175E+00 -5.022398196E-01  1.686156115E+00  2.033998323E+00  0.000000000E+00  0.00000E+00  9.000E+00
#rwgt            1          17   4.0866229106280461                1     3408347           0       11011           0
<weights>
0.15649E+02
</weights>
</event>
<event>
     15  10001  1.35503E+01  3.04176E+01 -1.00000E+00  3.14086E-01
      21    -1     0     0   511   501  0.000000000E+00  0.000000000E+00  5.787590568E+02  5.787590568E+02  0.000000000E+00  0.00000E+00  9.000E+00
      21    -1     0     0   501   502  0.000000000E+00  0.000000000E+00 -2.110201205E+02  2.110201205E+02  0.000000000E+00  0.00000E+00  9.000E+00
      -6     2     1     2     0   502  1.024590521E+02  5.668403541E+00  1.902699958E+02  2.760661156E+02  1.716969444E+02  0.00000E+00  9.000E+00
       6     2     1     2   507     0 -9.027598699E+01  2.220279872E+01  3.165177009E+02  3.713761769E+02  1.705699027E+02  0.00000E+00  9.000E+00
     -24     2     3     3     0     0 -2.139097947E+00  3.381130570E+01  1.068939782E+02  1.386606090E+02  8.156385089E+01  0.00000E+00  9.000E+00
      24     2     4     4     0     0 -9.350034934E+01 -1.380229582E+01  1.264836248E+02  1.778372877E+02  8.182404811E+01  0.00000E+00  9.000E+00
     -11     1     6     6     0     0 -9.881626890E+01  9.598366299E+00  8.901750910E+01  1.333450433E+02  0.000000000E+00  0.00000E+00  9.000E+00
      12     1     6     6     0     0  5.315919556E+00 -2.340066212E+01  3.746611567E+01  4.449224440E+01  9.536743164E-07  0.00000E+00  9.000E+00
      13     1     5     5     0     0 -2.706728001E+01  1.351989374E+00  9.067270332E+01  9.463616988E+01  0.000000000E+00  0.00000E+00  9.000E+00
     -14     1     5     5     0     0  2.492818207E+01  3.245931632E+01  1.622127485E+01  4.402443907E+01  4.129530925E-07  0.00000E+00  9.000E+00
       5     1     4     4   513     0  2.808560794E+00  2.725773101E+01  1.502866043E+02  1.528381427E+02  4.750000000E+00  0.00000E+00  9.000E+00
      -5     1     3     3     0   512  1.028967251E+02 -2.664992378E+01  8.332256983E+01  1.351412876E+02  4.750000000E+00  0.00000E+00  9.000E+00
      21     1     1     2   511   507 -1.218306509E+01 -2.787120226E+01 -1.390487604E+02  1.423368848E+02  2.697398305E-06  0.00000E+00  9.000E+00
      21     1     3     3   512   502  1.701424953E+00 -1.492978374E+00  5.344781280E-02  2.264219063E+00  7.528462842E-08  0.00000E+00  9.000E+00
      21     1     4     4   507   513  4.158015611E-01  8.747363529E+00  3.974747179E+01  4.070074659E+01  4.768371582E-07  0.00000E+00  9.000E+00
#rwgt            1          17   1.4527035588408335                1     3417343           0       11110           0
<weights>
0.13320E+02
</weights>
</event>
<event>
     15  10001  1.35503E+01  4.75050E+01 -1.00000E+00  1.23838E-01
      21    -1     0     0   511   501  0.000000000E+00  0.000000000E+00  1.233569142E+02  1.233569142E+02  0.000000000E+00  0.00000E+00  9.000E+00
      21    -1     0     0   501   502  0.000000000E+00  0.000000000E+00 -7.189365297E+02  7.189365297E+02  0.000000000E+00  0.00000E+00  9.000E+00
      -6     2     1     2     0   502  1.359834616E+01 -1.654827944E+02 -4.413798861E+02  5.021719733E+02  1.726007437E+02  0.00000E+00  9.000E+00
       6     2     1     2   507     0  1.405344695E+01  1.268550414E+02 -1.838758694E+02  2.841089878E+02  1.749796579E+02  0.00000E+00  9.000E+00
     -24     2     3     3     0     0  1.849337926E+01 -1.177386843E+02 -1.382326641E+02  1.875910018E+02  4.333257046E+01  0.00000E+00  9.000E+00
      24     2     4     4     0     0  3.458572662E+01  1.415939156E+02 -9.389887647E+01  1.885576902E+02  7.410798947E+01  0.00000E+00  9.000E+00
     -11     1     6     6     0     0  3.272902558E+00  1.124212951E+02 -9.269379439E+01  1.457442932E+02  0.000000000E+00  0.00000E+00  9.000E+00
      12     1     6     6     0     0  3.131282407E+01  2.917262052E+01 -1.205082075E+00  4.281339699E+01  1.350919912E-06  0.00000E+00  9.000E+00
      13     1     5     5     0     0  8.284968712E+00 -1.872707397E+01 -4.644888031E+00  2.099807112E+01  0.000000000E+00  0.00000E+00  9.000E+00
     -14     1     5     5     0     0  1.020841055E+01 -9.901161033E+01 -1.335877761E+02  1.665929306E+02  3.303624740E-06  0.00000E+00  9.000E+00
       5     1     4     4   514     0 -2.224453046E+01 -1.753857843E+01 -7.754623940E+01  8.269463474E+01  4.750000000E+00  0.00000E+00  9.000E+00
      -5     1     3     3     0   512 -1.584507852E-01 -5.955655010E+01 -1.586929997E+02  1.695672091E+02  4.750000000E+00  0.00000E+00  9.000E+00
      21     1     3     3   512   502 -4.736582323E+00  1.181244005E+01 -1.444542223E+02  1.450137624E+02  3.303624740E-06  0.00000E+00  9.000E+00
      21     1     1     2   511   507 -2.765179310E+01  3.862775293E+01  2.967613991E+01  5.601248287E+01  1.390207266E-06  0.00000E+00  9.000E+00
      21     1     4     4   507   514  1.712250781E+00  2.799704270E+00 -1.243075351E+01  1.285666285E+01  2.920019320E-07  0.00000E+00  9.000E+00
#rwgt            1          17   31.260866582355938                1     3428044           0      110110           0
<weights>
0.11377E+02
</weights>
</event>
<event>
     14  10001 -1.35503E+01  6.70238E+00 -1.00000E+00  7.50357E-01
      21    -1     0     0   502   512  0.000000000E+00  0.000000000E+00  1.594711294E+02  1.594711294E+02  0.000000000E+00  0.00000E+00  9.000E+00
      21    -1     0     0   507   502  0.000000000E+00  0.000000000E+00 -9.407041198E+02  9.407041198E+02  0.000000000E+00  0.00000E+00  9.000E+00
      -6     2     1     2     0   501 -1.408241566E+02  8.485627013E+00 -3.867658256E+00  2.224008946E+02  1.718829549E+02  0.00000E+00  9.000E+00
       6     2     1     2   507     0  1.409892577E+02 -1.518597101E+01 -7.908997270E+02  8.626713181E+02  3.139599344E+02  0.00000E+00  9.000E+00
     -24     2     3     3     0     0 -1.670496677E+02  2.820700837E+01 -1.122904054E+01  1.884382274E+02  8.174134448E+01  0.00000E+00  9.000E+00
      24     2     4     4     0     0  1.321536391E+02 -1.907978230E+01 -1.302742457E+02  2.013140808E+02  7.567930779E+01  0.00000E+00  9.000E+00
     -11     1     6     6     0     0  4.576497282E+01  2.784979928E+01 -6.018784658E+01  8.057680145E+01  0.000000000E+00  0.00000E+00  9.000E+00
      12     1     6     6     0     0  8.638866627E+01 -4.692958158E+01 -7.008639915E+01  1.207372794E+02  2.132480600E-06  0.00000E+00  9.000E+00
      13     1     5     5     0     0 -8.543271500E+01 -2.393144519E+01 -2.077095693E+01  9.112022560E+01  0.000000000E+00  0.00000E+00  9.000E+00
     -14     1     5     5     0     0 -8.161695265E+01  5.213845356E+01  9.541916391E+00  9.731800177E+01  3.432316792E-06  0.00000E+00  9.000E+00
       5     1     4     4   511     0  1.498980565E+01  1.062712115E+01 -5.593172432E+02  5.596391436E+02  4.750000000E+00  0.00000E+00  9.000E+00
      -5     1     3     3     0   501  2.622551109E+01 -1.972138136E+01  7.361382280E+00  3.396266721E+01  4.750000000E+00  0.00000E+00  9.000E+00
      21     1     4     4   507   511 -6.154187037E+00 -6.733309856E+00 -1.013082381E+02  1.017180937E+02  1.348699152E-06  0.00000E+00  9.000E+00
      21     1     1     2   501   512 -1.651011333E-01  6.700343993E+00  1.353439482E+01  1.510303648E+01  3.769728732E-07  0.00000E+00  9.000E+00
#rwgt            1          17  -1254.9861773102666                1     3435462           0        1001           0
<weights>
-.13507E+02
</weights>
</event>
<event>
     15  10001  1.35503E+01  4.80562E+01 -1.00000E+00  4.04981E-01
      21    -1     0     0   507   501  0.000000000E+00  0.000000000E+00  8.343287085E+01  8.343287085E+01  0.000000000E+00  0.00000E+00  9.000E+00
       2    -1     0     0   501     0  0.000000000E+00  0.000000000E+00 -8.904774114E+02  8.904774114E+02  0.000000000E+00  0.00000E+00  9.000E+00
      -6     2     1     2     0   502 -1.442221661E+02  1.099457489E+02 -3.235168096E+02  4.094523550E+02  1.734935274E+02  0.00000E+00  9.000E+00
       6     2     1     2   507     0  1.385623276E+02 -6.222397186E+01 -3.217790400E+02  3.957213254E+02  1.731539069E+02  0.00000E+00  9.000E+00
     -24     2     3     3     0     0 -1.429312963E+02  9.788155753E+01 -1.717430192E+02  2.569656903E+02  8.078085498E+01  0.00000E+00  9.000E+00
      24     2     4     4     0     0  1.220450984E+02 -8.158075291E+01 -3.273525415E+02  3.673102509E+02  7.878266773E+01  0.00000E+00  9.000E+00
     -11     1     6     6     0     0  1.372867740E+01 -5.114418371E+01 -8.554863544E+01  1.006119930E+02  0.000000000E+00  0.00000E+00  9.000E+00
      12     1     6     6     0     0  1.083164210E+02 -3.043656919E+01 -2.418039060E+02  2.666982579E+02  2.697398305E-06  0.00000E+00  9.000E+00
      13     1     5     5     0     0 -8.791345881E+01  2.299468345E+01 -1.202627878E+02  1.507337714E+02  0.000000000E+00  0.00000E+00  9.000E+00
     -14     1     5     5     0     0 -5.501783752E+01  7.488687408E+01 -5.148023143E+01  1.062319189E+02  6.743495762E-07  0.00000E+00  9.000E+00
       5     1     4     4   511     0  1.684563573E+01  1.864164890E+01  3.030892386E+00  2.574947234E+01  4.750000000E+00  0.00000E+00  9.000E+00
      -5     1     3     3     0   512 -1.338141253E+00  9.713701429E+00 -1.426280179E+02  1.430435619E+02  4.750000000E+00  0.00000E+00  9.000E+00
       2     1     1     2   502     0  5.659838467E+00 -4.772177704E+01 -1.617486910E+02  1.687366019E+02  0.000000000E+00  0.00000E+00  9.000E+00
      21     1     4     4   507   511 -3.284065056E-01  7.151321482E-01  2.542609105E+00  2.661602127E+00  2.889442359E-07  0.00000E+00  9.000E+00
      21     1     3     3   512   502  4.727150917E-02  2.350489943E+00 -9.145772453E+00  9.443102844E+00  1.685873940E-07  0.00000E+00  9.000E+00
#rwgt            1          17   29.205474504116111                1     3444039           0       11011           0
<weights>
0.91043E+01
</weights>
</event>
<event>
     15  10001  1.35503E+01  3.61534E+00 -1.00000E+00  1.87522E-01
       2    -1     0     0   513     0  0.000000000E+00  0.000000000E+00  1.771508405E+02  1.771508405E+02  0.000000000E+00  0.00000E+00  9.000E+00
      -2    -1     0     0     0   502  0.000000000E+00  0.000000000E+00 -2.623337530E+02  2.623337530E+02  0.000000000E+00  0.00000E+00  9.000E+00
      -6     2     1     2     0   502  2.695053264E+01 -1.118605673E+02 -7.166322542E+01  2.191867923E+02  1.722443448E+02  0.00000E+00  9.000E+00
       6     2     1     2   507     0 -2.734492117E+01  1.154543341E+02 -2.170531427E+01  2.113493269E+02  1.735510569E+02  0.00000E+00  9.000E+00
     -24     2     3     3     0     0  4.544113806E+00 -6.565977722E+01  2.639290759E+01  1.060379351E+02  7.883909434E+01  0.00000E+00  9.000E+00
      24     2     4     4     0     0 -5.148163506E+01  1.218037527E+02 -5.683229712E+01  1.665343866E+02  8.376920091E+01  0.00000E+00  9.000E+00
     -11     1     6     6     0     0  1.939845703E+01  3.583640561E+01  1.482400389E+00  4.077677787E+01  0.000000000E+00  0.00000E+00  9.000E+00
      12     1     6     6     0     0 -7.088009209E+01  8.596734704E+01 -5.831469751E+01  1.257576087E+02  1.651812370E-06  0.00000E+00  9.000E+00
      13     1     5     5     0     0  1.064475614E+01 -8.265201542E+01  1.495609779E+01  8.466611688E+01  0.000000000E+00  0.00000E+00  9.000E+00
     -14     1     5     5     0     0 -6.100642330E+00  1.699223820E+01  1.143680980E+01  2.137181823E+01  9.233911863E-07  0.00000E+00  9.000E+00
       5     1     4     4   512     0  2.303656963E+01 -5.619477145E+00  2.567354886E+01  3.526975581E+01  4.750000000E+00  0.00000E+00  9.000E+00
      -5     1     3     3     0   511  1.611955968E+01 -4.679450527E+01 -8.201183816E+01  9.590656926E+01  4.750000000E+00  0.00000E+00  9.000E+00
      21     1     3     3   511   502  6.286859155E+00  5.937151520E-01 -1.604429484E+01  1.724228792E+01  2.384185791E-07  0.00000E+00  9.000E+00
      21     1     4     4   507   512  1.100144254E+00 -7.299414555E-01  9.453433991E+00  9.545184447E+00  1.192092896E-07  0.00000E+00  9.000E+00
      21     1     1     2   513   507  3.943885313E-01 -3.593766725E+00  8.185627189E+00  8.948474399E+00  1.685873940E-07  0.00000E+00  9.000E+00
#rwgt            1           8  0.33047701262526058                1     3450666           0      111001           0
<weights>
0.94344E+01
</weights>
</event>
<event>
     14  10001  1.35503E+01  6.09380E+01 -1.00000E+00  7.48796E-01
      21    -1     0     0   507   512  0.000000000E+00  0.000000000E+00  3.585942604E+02  3.585942604E+02  0.000000000E+00  0.00000E+00  9.000E+00
      21    -1     0     0   501   502  0.000000000E+00  0.000000000E+00 -3.191225168E+02  3.191225168E+02  0.000000000E+00  0.00000E+00  9.000E+00
      -6     2     1     2     0   502  1.944672633E+01 -6.370154984E+01  1.206277500E+02  1.944886582E+02  1.372542220E+02  0.00000E+00  9.000E+00
       6     2     1     2   507     0 -3.375799252E+01  4.467878700E+00  1.589788103E+02  2.354819378E+02  1.703464615E+02  0.00000E+00  9.000E+00
     -24     2     3     3     0     0 -3.102194535E+01 -4.205342339E+01  6.401265443E+01  1.154724589E+02  8.065616726E+01  0.00000E+00  9.000E+00
      24     2     4     4     0     0  1.451947128E+01  5.409442589E+01  6.508533404E+01  1.161176502E+02  7.816767885E+01  0.00000E+00  9.000E+00
     -11     1     6     6     0     0 -2.357487518E+01  4.056572290E+01  5.877083614E+01  7.520215286E+01  0.000000000E+00  0.00000E+00  9.000E+00
      12     1     6     6     0     0  3.809434645E+01  1.352870298E+01  6.314497893E+00  4.091549731E+01  8.596304120E-07  0.00000E+00  9.000E+00
      13     1     5     5     0     0  1.915851477E+01  5.591411309E+00 -1.720259617E+00  2.003177131E+01  0.000000000E+00  0.00000E+00  9.000E+00
     -14     1     5     5     0     0 -5.018046012E+01 -4.764483470E+01  6.573291405E+01  9.544068755E+01  1.651812370E-06  0.00000E+00  9.000E+00
       5     1     4     4   511     0 -4.871892717E+01 -5.110643561E+01  9.416913836E+01  1.177955464E+02  4.750000000E+00  0.00000E+00  9.000E+00
      -5     1     3     3     0   502  5.046867168E+01 -2.164812645E+01  5.661509560E+01  7.901619929E+01  4.750000000E+00  0.00000E+00  9.000E+00
      21     1     1     2   501   512  1.431126619E+01  5.923367114E+01 -2.401348166E+02  2.477461812E+02  6.031565972E-06  0.00000E+00  9.000E+00
      21     1     4     4   507   511  4.414633698E-01  1.479888418E+00 -2.756621465E-01  1.568741297E+00  3.977521603E-08  0.00000E+00  9.000E+00
#rwgt            1          17   18.348588204931506                1     3452261           0         110           0
<weights>
0.12620E+02
</weights>
</event>
<event>
     14  10001  1.35503E+01  5.14798E+01 -1.00000E+00  7.49750E-01
       2    -1     0     0   507     0  0.000000000E+00  0.000000000E+00  9.574990174E+02  9.574990174E+02  0.000000000E+00  0.00000E+00  9.000E+00
      21    -1     0     0   501   502  0.000000000E+00  0.000000000E+00 -8.035721409E+01  8.035721409E+01  0.000000000E+00  0.00000E+00  9.000E+00
      -6     2     1     2     0   502 -4.403165225E+01 -7.333055143E+00  2.550003938E+02  3.109926957E+02  1.723330956E+02  0.00000E+00  9.000E+00
       6     2     1     2   507     0  4.862241770E+01  5.860771098E+01  1.237775835E+02  2.258478988E+02  1.728796689E+02  0.00000E+00  9.000E+00
     -24     2     3     3     0     0 -5.160837065E+01 -2.087912381E+00  2.735333149E+02  2.897571159E+02  8.044208171E+01  0.00000E+00  9.000E+00
      24     2     4     4     0     0  8.730457325E+01  5.678979092E+01  7.464240802E+01  1.537230250E+02  8.492414551E+01  0.00000E+00  9.000E+00
     -11     1     6     6     0     0  1.516819969E+01  3.104743558E+01  6.870033720E+01  7.690093542E+01  0.000000000E+00  0.00000E+00  9.000E+00
      12     1     6     6     0     0  7.213637356E+01  2.574235534E+01  5.942070824E+00  7.682208962E+01  2.700031198E-06  0.00000E+00  9.000E+00
      13     1     5     5     0     0 -4.320768561E+01 -1.951666608E+01  2.639349452E+02  2.681593922E+02  0.000000000E+00  0.00000E+00  9.000E+00
     -14     1     5     5     0     0 -8.400685041E+00  1.742875370E+01  9.598369776E+00  2.159772365E+01  6.419616708E-07  0.00000E+00  9.000E+00
       5     1     4     4   512     0 -1.316623853E+01 -5.535264861E+00 -1.319174187E+00  1.510932542E+01  4.750000000E+00  0.00000E+00  9.000E+00
      -5     1     3     3     0   502  7.576718405E+00 -5.245142763E+00 -1.853292115E+01  2.123557983E+01  4.750000000E+00  0.00000E+00  9.000E+00
       2     1     1     2   501     0 -4.590765452E+00 -5.127465584E+01  4.983638260E+02  5.010156370E+02  0.000000000E+00  0.00000E+00  9.000E+00
      21     1     4     4   507   512 -2.551591702E+01  7.353184923E+00  5.045434964E+01  5.701554830E+01  9.536743164E-07  0.00000E+00  9.000E+00
#rwgt            1          17   2.2290666492021316                1     3459214           0         110           0
<weights>
0.34129E+02
</weights>
</event>
<event>
     13  10001  1.35503E+01  1.42401E+01 -1.00000E+00  1.79537E-01
      21    -1     0     0   507   511  0.000000000E+00  0.000000000E+00  3.077449356E+02  3.077449356E+02  0.000000000E+00  0.00000E+00  9.000E+00
      21    -1     0     0   501   502  0.000000000E+00  0.000000000E+00 -2.078622213E+02  2.078622213E+02  0.000000000E+00  0.00000E+00  9.000E+00
      -6     2     1     2     0   502  6.468337060E+01 -1.115469690E+02 -7.499142370E+01  2.271428865E+02  1.712994819E+02  0.00000E+00  9.000E+00
       6     2     1     2   507     0 -5.723078713E+01  9.941275694E+01  1.374440003E+02  2.484168572E+02  1.722260796E+02  0.00000E+00  9.000E+00
     -24     2     3     3     0     0  6.281827384E+01 -1.176501630E+02 -1.639266562E+00  1.533605782E+02  7.569070843E+01  0.00000E+00  9.000E+00
      24     2     4     4     0     0 -3.303198366E+01  9.448885455E+01  1.661703076E+02  2.102384584E+02  8.104555936E+01  0.00000E+00  9.000E+00
     -11     1     6     6     0     0 -2.247189311E+01  6.537387767E+01  1.653923232E+02  1.792577765E+02  0.000000000E+00  0.00000E+00  9.000E+00
      12     1     6     6     0     0 -1.056009055E+01  2.911497687E+01  7.779843743E-01  3.098068189E+01  1.747316033E-07  0.00000E+00  9.000E+00
      13     1     5     5     0     0 -4.506217860E+00 -2.493253291E+01 -2.590652279E+01  3.623651638E+01  0.000000000E+00  0.00000E+00  9.000E+00
     -14     1     5     5     0     0  6.732449170E+01 -9.271763014E+01  2.426725622E+01  1.171240618E+02  9.536743164E-07  0.00000E+00  9.000E+00
       5     1     4     4   507     0 -2.419880346E+01  4.923902391E+00 -2.872630729E+01  3.817839879E+01  4.750000000E+00  0.00000E+00  9.000E+00
      -5     1     3     3     0   502  1.865096758E+00  6.103194008E+00 -7.335215714E+01  7.378230832E+01  4.750000000E+00  0.00000E+00  9.000E+00
      21     1     1     2   501   511 -7.452583477E+00  1.213421210E+01  3.743013762E+01  4.004741323E+01  0.000000000E+00  0.00000E+00  9.000E+00
#rwgt            2         113   9.5397905478669831E-002           1     3476961           0           1           0
<weights>
0.13550E+02
</weights>
</event>
<event>
     15  10001  1.35503E+01  1.24405E+01 -1.00000E+00  3.49509E-01
      21    -1     0     0   512   501  0.000000000E+00  0.000000000E+00  1.053842857E+02  1.053842857E+02  0.000000000E+00  0.00000E+00  9.000E+00
      21    -1     0     0   501   502  0.000000000E+00  0.000000000E+00 -6.108770712E+02  6.108770712E+02  0.000000000E+00  0.00000E+00  9.000E+00
      -6     2     1     2     0   502  1.248094519E+02 -9.696362554E+00 -2.778615865E+02  3.506345709E+02  1.733958545E+02  0.00000E+00  9.000E+00
       6     2     1     2   507     0 -1.371481975E+02  8.108723255E+00 -1.082169949E+02  2.455663121E+02  1.723847910E+02  0.00000E+00  9.000E+00
     -24     2     3     3     0     0  3.879247133E+01 -4.252840394E+01 -2.387936346E+02  2.500013050E+02  4.652667642E+01  0.00000E+00  9.000E+00
      24     2     4     4     0     0 -6.040104189E+01 -5.798545654E+01 -3.787448011E+01  1.221158299E+02  8.041890715E+01  0.00000E+00  9.000E+00
     -11     1     6     6     0     0  7.545282729E+00 -3.281640226E+01  1.017178882E+01  3.517545787E+01  0.000000000E+00  0.00000E+00  9.000E+00
      12     1     6     6     0     0 -6.794632462E+01 -2.516905428E+01 -4.804626893E+01  8.694037199E+01  2.236564522E-06  0.00000E+00  9.000E+00
      13     1     5     5     0     0  3.882822900E+01 -1.930833321E+01 -2.011580941E+02  2.057790610E+02  0.000000000E+00  0.00000E+00  9.000E+00
     -14     1     5     5     0     0 -3.575767562E-02 -2.322007074E+01 -3.763554047E+01  4.422224407E+01  1.168007728E-06  0.00000E+00  9.000E+00
       5     1     4     4   514     0 -6.926055779E+01  5.893622533E+01 -6.231283392E+01  1.103447112E+02  4.750000000E+00  0.00000E+00  9.000E+00
      -5     1     3     3     0   511  8.292602129E+01  3.327892246E+01 -3.869184297E+01  9.748760382E+01  4.750000000E+00  0.00000E+00  9.000E+00
      21     1     1     2   512   507  1.233874562E+01  1.587639299E+00 -1.194142041E+02  1.200604739E+02  1.907348633E-06  0.00000E+00  9.000E+00
      21     1     3     3   511   502  3.090959238E+00 -4.468810755E-01 -3.761088910E-01  3.145662029E+00  6.726186754E-08  0.00000E+00  9.000E+00
      21     1     4     4   507   514 -7.486597787E+00  7.157954464E+00 -8.029680866E+00  1.310577099E+01  0.000000000E+00  0.00000E+00  9.000E+00
#rwgt            1          17   14.343535126167525                1     3479176           0       11110           0
<weights>
0.16376E+02
</weights>
</event>
<event>
     13  10001  1.35503E+01  3.72368E+01 -1.00000E+00  1.46795E-01
      21    -1     0     0   507   501  0.000000000E+00  0.000000000E+00  1.004654746E+03  1.004654746E+03  0.000000000E+00  0.00000E+00  9.000E+00
      21    -1     0     0   501   511  0.000000000E+00  0.000000000E+00 -8.433734115E+01  8.433734115E+01  0.000000000E+00  0.00000E+00  9.000E+00
      -6     2     1     2     0   502  6.600433351E+01 -3.598782197E+01  3.787934523E+02  4.222049844E+02  1.706483929E+02  0.00000E+00  9.000E+00
       6     2     1     2   507     0 -3.141893177E+01  4.978745885E+01  5.876878536E+02  6.074770208E+02  1.420752519E+02  0.00000E+00  9.000E+00
     -24     2     3     3     0     0  1.063479875E+02 -4.855545994E+01  2.707097242E+02  3.060576180E+02  8.197550636E+01  0.00000E+00  9.000E+00
      24     2     4     4     0     0 -5.657127582E+01  2.904540825E+00  3.350664878E+02  3.492701941E+02  8.069307040E+01  0.00000E+00  9.000E+00
     -11     1     6     6     0     0 -3.488435609E+01 -3.507991392E+01  1.199461006E+02  1.297481626E+02  0.000000000E+00  0.00000E+00  9.000E+00
      12     1     6     6     0     0 -2.168691973E+01  3.798445475E+01  2.151203872E+02  2.195220314E+02  0.000000000E+00  0.00000E+00  9.000E+00
      13     1     5     5     0     0  2.834746153E+01 -4.592698743E+01  5.678688308E+01  7.834294377E+01  0.000000000E+00  0.00000E+00  9.000E+00
     -14     1     5     5     0     0  7.800052595E+01 -2.628472517E+00  2.139228411E+02  2.277146742E+02  0.000000000E+00  0.00000E+00  9.000E+00
       5     1     4     4   507     0  2.515234404E+01  4.688291803E+01  2.526213658E+02  2.582068268E+02  4.750000000E+00  0.00000E+00  9.000E+00
      -5     1     3     3     0   502 -4.034365397E+01  1.256763798E+01  1.080837281E+02  1.161473664E+02  4.750000000E+00  0.00000E+00  9.000E+00
      21     1     1     2   502   511 -3.458540174E+01 -1.379963688E+01 -4.616390137E+01  5.931008161E+01  1.348699152E-06  0.00000E+00  9.000E+00
#rwgt            2         113   1.9510777467264027                1     3510164           0           1           0
<weights>
0.13550E+02
</weights>
</event>
<event>
     15  10001  1.35503E+01  2.87083E+01 -1.00000E+00  1.34537E-01
      21    -1     0     0   513   501  0.000000000E+00  0.000000000E+00  3.641307825E+02  3.641307825E+02  0.000000000E+00  0.00000E+00  9.000E+00
      21    -1     0     0   501   502  0.000000000E+00  0.000000000E+00 -1.972607438E+02  1.972607438E+02  0.000000000E+00  0.00000E+00  9.000E+00
      -6     2     1     2     0   502 -5.281071674E+01 -9.931851111E+01  4.325225007E+01  2.082402657E+02  1.698237695E+02  0.00000E+00  9.000E+00
       6     2     1     2   507     0  7.577903617E+01  1.165412556E+02  1.017662537E+00  2.272347901E+02  1.797506262E+02  0.00000E+00  9.000E+00
     -24     2     3     3     0     0 -1.009215371E+01 -1.610212027E+00  3.226876526E+01  8.683314145E+01  7.996422259E+01  0.00000E+00  9.000E+00
      24     2     4     4     0     0 -1.235857290E+01  1.116583724E+02 -1.085011037E+00  1.380899666E+02  8.029529978E+01  0.00000E+00  9.000E+00
     -11     1     6     6     0     0 -1.415275150E+01  1.060043427E+01 -2.834171278E+01  3.340542269E+01  0.000000000E+00  0.00000E+00  9.000E+00
      12     1     6     6     0     0  1.794178602E+00  1.010579381E+02  2.725670175E+01  1.046845439E+02  2.500555153E-06  0.00000E+00  9.000E+00
      13     1     5     5     0     0  8.652841955E+00  3.262892148E+01 -3.437159325E+00  3.393128726E+01  0.000000000E+00  0.00000E+00  9.000E+00
     -14     1     5     5     0     0 -1.874499567E+01 -3.423913351E+01  3.570592459E+01  5.290185419E+01  9.536743164E-07  0.00000E+00  9.000E+00
       5     1     4     4   511     0  8.628089048E+01  4.374220684E+00  3.761046185E+00  8.660389043E+01  4.750000000E+00  0.00000E+00  9.000E+00
      -5     1     3     3     0   512 -4.639225332E+01 -3.560705771E+01  6.570685869E+00  5.904100389E+01  4.750000000E+00  0.00000E+00  9.000E+00
      21     1     3     3   512   502  3.673690294E+00 -6.210124137E+01  4.412798935E+00  6.236612040E+01  1.763129170E-06  0.00000E+00  9.000E+00
      21     1     1     2   513   507 -2.296831942E+01 -1.722274454E+01  1.226001261E+02  1.259164705E+02  1.907348633E-06  0.00000E+00  9.000E+00
      21     1     4     4   507   511  1.856718582E+00  5.086625493E-01 -1.658372611E+00  2.540933135E+00  3.650024150E-08  0.00000E+00  9.000E+00
#rwgt            1          17   3.4439165316542728                1     3511227           0      110110           0
<weights>
0.40455E+02
</weights>
</event>
<event>
     13  10001  1.35503E+01  1.71161E+02 -1.00000E+00  1.14167E-01
      21    -1     0     0   511   501  0.000000000E+00  0.000000000E+00  5.306579398E+02  5.306579398E+02  0.000000000E+00  0.00000E+00  9.000E+00
      21    -1     0     0   501   502  0.000000000E+00  0.000000000E+00 -6.114005680E+02  6.114005680E+02  0.000000000E+00  0.00000E+00  9.000E+00
      -6     2     1     2     0   502 -9.759550834E+01 -2.210833650E+02 -2.394525456E+02  3.809369042E+02  1.713845555E+02  0.00000E+00  9.000E+00
       6     2     1     2   507     0 -5.086685838E+01  1.359079403E+02 -2.388379103E+02  3.282934592E+02  1.722632939E+02  0.00000E+00  9.000E+00
     -24     2     3     3     0     0 -4.575545167E+01 -3.782514297E+01 -1.189592973E+02  1.555213928E+02  8.069254237E+01  0.00000E+00  9.000E+00
      24     2     4     4     0     0 -1.329341062E+01 -1.318480118E+00 -9.656626715E+01  1.270308512E+02  8.144531931E+01  0.00000E+00  9.000E+00
     -11     1     6     6     0     0 -1.764054559E+01 -1.069314357E+01 -1.089593411E+02  1.108948610E+02  0.000000000E+00  0.00000E+00  9.000E+00
      12     1     6     6     0     0  4.347134964E+00  9.374663448E+00  1.239307397E+01  1.613599020E+01  6.307962682E-07  0.00000E+00  9.000E+00
      13     1     5     5     0     0 -2.024476552E+01 -6.819391708E-01  7.245975347E+00  2.151324547E+01  0.000000000E+00  0.00000E+00  9.000E+00
     -14     1     5     5     0     0 -2.551068615E+01 -3.714320380E+01 -1.262052726E+02  1.340081473E+02  1.348699152E-06  0.00000E+00  9.000E+00
       5     1     4     4   507     0 -3.757344776E+01  1.372264204E+02 -1.422716432E+02  2.012626080E+02  4.750000000E+00  0.00000E+00  9.000E+00
      -5     1     3     3     0   502 -5.184005667E+01 -1.832582221E+02 -1.204932483E+02  2.254155115E+02  4.750000000E+00  0.00000E+00  9.000E+00
      21     1     1     2   511   507  1.484623667E+02  8.517542476E+01  3.975478276E+02  4.328281444E+02  5.394796609E-06  0.00000E+00  9.000E+00
#rwgt            2         113   3.1948826945832565                1     3517499           0           1           0
<weights>
0.13550E+02
</weights>
</event>
<event>
     14  10001 -1.35503E+01  7.63263E+01 -1.00000E+00  7.49911E-01
      -2    -1     0     0     0   501  0.000000000E+00  0.000000000E+00  6.391791263E+02  6.391791263E+02  0.000000000E+00  0.00000E+00  9.000E+00
      21    -1     0     0   507   502  0.000000000E+00  0.000000000E+00 -2.590072677E+02  2.590072677E+02  0.000000000E+00  0.00000E+00  9.000E+00
      -6     2     1     2     0   501  2.056604768E+01 -1.063752166E+02  1.411548575E+02  2.481771044E+02  1.729986483E+02  0.00000E+00  9.000E+00
       6     2     1     2   507     0 -6.155313699E+01  4.198765094E+01 -1.598675183E+02  2.438879286E+02  1.684397424E+02  0.00000E+00  9.000E+00
     -24     2     3     3     0     0  7.941347114E+01 -8.653962005E+01  1.010940260E+02  1.741237259E+02  7.939436123E+01  0.00000E+00  9.000E+00
      24     2     4     4     0     0 -3.903784071E+01  3.532415154E+01 -1.845605698E+02  2.081986337E+02  8.069893715E+01  0.00000E+00  9.000E+00
     -11     1     6     6     0     0  2.332037979E+00 -2.374505045E+01 -3.826093249E+01  4.509062848E+01  0.000000000E+00  0.00000E+00  9.000E+00
      12     1     6     6     0     0 -4.136987869E+01  5.906920199E+01 -1.462996373E+02  1.631080052E+02  1.907348633E-06  0.00000E+00  9.000E+00
      13     1     5     5     0     0  5.394264838E+01 -8.357380535E+01  1.087324362E+02  1.473673402E+02  0.000000000E+00  0.00000E+00  9.000E+00
     -14     1     5     5     0     0  2.547082276E+01 -2.965814698E+00 -7.638410207E+00  2.675638577E+01  6.136673773E-07  0.00000E+00  9.000E+00
       5     1     4     4   511     0 -1.566662569E+01  2.393719171E-01  1.603244424E+01  2.291510916E+01  4.750000000E+00  0.00000E+00  9.000E+00
      -5     1     3     3     0   501 -5.884742346E+01 -1.983559656E+01  4.006083149E+01  7.405337844E+01  4.750000000E+00  0.00000E+00  9.000E+00
      -2     1     1     2     0   502  4.098708931E+01  6.438756567E+01  3.988845193E+02  4.061213610E+02  0.000000000E+00  0.00000E+00  9.000E+00
      21     1     4     4   507   511 -6.848670592E+00  6.424127486E+00  8.660607303E+00  1.277418576E+01  4.460403188E-07  0.00000E+00  9.000E+00
#rwgt            1          17  -47.453963614980545                1     3518514           0         110           0
<weights>
-.12912E+02
</weights>
</event>
<event>
     15  10001  1.35503E+01  2.15221E+01 -1.00000E+00  1.66377E-01
      21    -1     0     0   502   511  0.000000000E+00  0.000000000E+00  1.603756591E+02  1.603756591E+02  0.000000000E+00  0.00000E+00  9.000E+00
      21    -1     0     0   507   502  0.000000000E+00  0.000000000E+00 -5.458837566E+02  5.458837566E+02  0.000000000E+00  0.00000E+00  9.000E+00
      -6     2     1     2     0   501  1.182532400E+01  9.491671142E+00 -2.178228886E+01  1.767055958E+02  1.747010858E+02  0.00000E+00  9.000E+00
       6     2     1     2   507     0  4.269430600E+00 -2.378009381E+01 -4.278447772E+02  4.619191966E+02  1.724368576E+02  0.00000E+00  9.000E+00
     -24     2     3     3     0     0 -5.658783789E+01  2.404845206E+01 -2.015947645E+01  1.028516450E+02  7.994713847E+01  0.00000E+00  9.000E+00
      24     2     4     4     0     0  1.338984472E+01  2.467741679E+00 -7.461042188E+01  1.073544322E+02  7.597947991E+01  0.00000E+00  9.000E+00
     -11     1     6     6     0     0 -1.093924616E+01 -3.250963540E+01 -2.874515212E+01  4.475295824E+01  0.000000000E+00  0.00000E+00  9.000E+00
      12     1     6     6     0     0  2.432909088E+01  3.497737708E+01 -4.586526976E+01  6.260147395E+01  1.651812370E-06  0.00000E+00  9.000E+00
      13     1     5     5     0     0  1.915864574E+01 -4.273159603E+00 -7.426495023E+00  2.098729206E+01  0.000000000E+00  0.00000E+00  9.000E+00
     -14     1     5     5     0     0 -7.574648363E+01  2.832161166E+01 -1.273298143E+01  8.186435296E+01  4.264961200E-06  0.00000E+00  9.000E+00
       5     1     4     4   513     0 -9.217376732E+00 -2.603364545E+01 -3.532193181E+02  3.543291689E+02  4.750000000E+00  0.00000E+00  9.000E+00
      -5     1     3     3     0   512  4.252315976E+01 -2.265422050E+00 -9.992409643E+00  4.399729541E+01  4.750000000E+00  0.00000E+00  9.000E+00
      21     1     1     2   501   511 -1.609475460E+01  1.428842267E+01  6.411896860E+01  6.763462340E+01  2.523185073E-06  0.00000E+00  9.000E+00
      21     1     3     3   512   501  2.589000213E+01 -1.229135886E+01  8.369597232E+00  2.985665538E+01  2.920019320E-07  0.00000E+00  9.000E+00
      21     1     4     4   507   513  9.696261406E-02 -2.141900378E-01 -1.503723443E-02  2.355954992E-01  1.099369989E-08  0.00000E+00  9.000E+00
#rwgt            1          17   67.240375222582429                1     3526158           0       11110           0
<weights>
0.13337E+02
</weights>
</event>
<event>
     15  10001  1.35503E+01  2.30412E+01 -1.00000E+00  6.10051E-01
      21    -1     0     0   512   501  0.000000000E+00  0.000000000E+00  2.519246480E+02  2.519246480E+02  0.000000000E+00  0.00000E+00  9.000E+00
      21    -1     0     0   507   502  0.000000000E+00  0.000000000E+00 -2.603026044E+02  2.603026044E+02  0.000000000E+00  0.00000E+00  9.000E+00
      -6     2     1     2     0   501 -1.300289721E+02  1.433765031E+00  6.430358822E+01  2.252168833E+02  1.722733403E+02  0.00000E+00  9.000E+00
       6     2     1     2   507     0  1.462026515E+02 -1.784434709E+01 -1.033053541E+02  2.486865798E+02  1.716956108E+02  0.00000E+00  9.000E+00
     -24     2     3     3     0     0 -5.084892289E+01  4.204948110E+01 -1.564544798E+01  1.050910225E+02  8.028431448E+01  0.00000E+00  9.000E+00
      24     2     4     4     0     0  8.635182803E+01  4.712019727E+01 -6.699196025E+01  1.436903607E+02  8.051115344E+01  0.00000E+00  9.000E+00
     -11     1     6     6     0     0  6.463882184E+01 -1.054093957E+01 -3.548701974E+01  7.448904125E+01  0.000000000E+00  0.00000E+00  9.000E+00
      12     1     6     6     0     0  2.171300619E+01  5.766113684E+01 -3.150494051E+01  6.920131946E+01  1.994752947E-06  0.00000E+00  9.000E+00
      13     1     5     5     0     0 -2.531314408E+01 -1.262348335E+01 -3.186325599E+01  4.260721392E+01  0.000000000E+00  0.00000E+00  9.000E+00
     -14     1     5     5     0     0 -2.553577881E+01  5.467296445E+01  1.621780801E+01  6.248380860E+01  6.307962682E-07  0.00000E+00  9.000E+00
       5     1     4     4   511     0  4.981392013E+01 -5.955675922E+01 -1.275889231E+01  7.882757158E+01  4.750000000E+00  0.00000E+00  9.000E+00
      -5     1     3     3     0   514 -7.839622467E+01 -4.118963782E+01  7.908841104E+01  1.188279999E+02  4.750000000E+00  0.00000E+00  9.000E+00
      21     1     1     2   512   502 -1.617367942E+01  1.641058206E+01  3.062380959E+01  3.832378926E+01  1.011524364E-06  0.00000E+00  9.000E+00
      21     1     4     4   507   511  1.003690339E+01 -5.407785131E+00 -2.355450158E+01  2.616864755E+01  3.371747881E-07  0.00000E+00  9.000E+00
      21     1     3     3   514   501 -7.838245628E-01  5.739217535E-01  8.606251610E-01  1.297860852E+00  1.053671213E-08  0.00000E+00  9.000E+00
#rwgt            1          17   13.119398731626825                1     3535551           0       11011           0
<weights>
0.10021E+02
</weights>
</event>
<event>
     15  10001  1.35503E+01  1.88468E+01 -1.00000E+00  1.67498E-01
      21    -1     0     0   512   501  0.000000000E+00  0.000000000E+00  8.722618697E+01  8.722618697E+01  0.000000000E+00  0.00000E+00  9.000E+00
      21    -1     0     0   501   502  0.000000000E+00  0.000000000E+00 -4.829174646E+02  4.829174646E+02  0.000000000E+00  0.00000E+00  9.000E+00
      -6     2     1     2     0   502 -5.716285702E+01 -4.026980108E+01 -2.880993891E+02  3.430410020E+02  1.725880121E+02  0.00000E+00  9.000E+00
       6     2     1     2   507     0  4.109483807E+01  3.041980555E+01 -1.017799680E+02  2.073800214E+02  1.733007822E+02  0.00000E+00  9.000E+00
     -24     2     3     3     0     0  2.632762198E+01 -5.441473684E+01 -1.629407431E+02  1.900871959E+02  7.700226628E+01  0.00000E+00  9.000E+00
      24     2     4     4     0     0  4.216971656E+01 -4.971448535E+01 -5.489204645E+01  1.139345493E+02  7.561831596E+01  0.00000E+00  9.000E+00
     -11     1     6     6     0     0 -6.505161019E+00 -6.437974579E+00 -4.751301046E+01  4.838647331E+01  0.000000000E+00  0.00000E+00  9.000E+00
      12     1     6     6     0     0  4.867487758E+01 -4.327651077E+01 -7.379035991E+00  6.554807597E+01  3.035743613E-06  0.00000E+00  9.000E+00
      13     1     5     5     0     0  5.339584116E+01 -3.227244212E+01 -9.465550777E+01  1.133679475E+02  0.000000000E+00  0.00000E+00  9.000E+00
     -14     1     5     5     0     0 -2.706821918E+01 -2.214229471E+01 -6.828523535E+01  7.671924838E+01  1.651812370E-06  0.00000E+00  9.000E+00
       5     1     4     4   513     0 -2.282542142E-01  7.967789296E+01 -4.594444806E+01  9.209817335E+01  4.750000000E+00  0.00000E+00  9.000E+00
      -5     1     3     3     0   511 -4.647756634E+01  1.551789993E+01 -8.571360380E+01  9.884509986E+01  4.750000000E+00  0.00000E+00  9.000E+00
      21     1     3     3   511   502 -3.701291265E+01 -1.372964177E+00 -3.944504217E+01  5.410870618E+01  1.719260824E-06  0.00000E+00  9.000E+00
      21     1     1     2   512   507  1.606801894E+01  9.849995530E+00 -5.811920581E+00  1.972262826E+01  4.042583694E-07  0.00000E+00  9.000E+00
      21     1     4     4   507   513 -8.466242677E-01  4.563979450E-01 -9.434734946E-01  1.347298768E+00  2.787751993E-08  0.00000E+00  9.000E+00
#rwgt            1          17   4.5080086366407235                1     3542329           0      110110           0
<weights>
0.21459E+02
</weights>
</event>
<event>
     15  10001  1.35503E+01  1.46188E+01 -1.00000E+00  6.47495E-01
      21    -1     0     0   507   512  0.000000000E+00  0.000000000E+00  7.473917771E+01  7.473917771E+01  0.000000000E+00  0.00000E+00  9.000E+00
      21    -1     0     0   501   502  0.000000000E+00  0.000000000E+00 -5.528273127E+02  5.528273127E+02  0.000000000E+00  0.00000E+00  9.000E+00
      -6     2     1     2     0   502  9.679378582E+00 -7.063028976E+01 -2.126198545E+02  2.831566886E+02  1.728819816E+02  0.00000E+00  9.000E+00
       6     2     1     2   507     0  3.621341934E+00  7.669664138E+01 -2.683819913E+02  3.295034441E+02  1.750660948E+02  0.00000E+00  9.000E+00
     -24     2     3     3     0     0  2.089239025E+01  1.874990024E+01 -1.544189909E+02  1.756994919E+02  7.897490726E+01  0.00000E+00  9.000E+00
      24     2     4     4     0     0 -2.780684614E+01  6.605524782E+01 -2.745693331E+02  2.948226683E+02  7.997231152E+01  0.00000E+00  9.000E+00
     -11     1     6     6     0     0 -5.429151252E+01  4.000644600E+01 -2.070842088E+02  2.177887821E+02  0.000000000E+00  0.00000E+00  9.000E+00
      12     1     6     6     0     0  2.648466638E+01  2.604880182E+01 -6.748512431E+01  7.703388626E+01  9.536743164E-07  0.00000E+00  9.000E+00
      13     1     5     5     0     0  4.546151467E+01 -5.724871138E+00 -1.113149803E+02  1.203766934E+02  0.000000000E+00  0.00000E+00  9.000E+00
     -14     1     5     5     0     0 -2.456912442E+01  2.447477137E+01 -4.310401058E+01  5.532279853E+01  6.743495762E-07  0.00000E+00  9.000E+00
       5     1     4     4   511     0  2.649481967E+01  1.033830196E+01  3.475472967E+00  2.904302617E+01  4.750000000E+00  0.00000E+00  9.000E+00
      -5     1     3     3     0   514 -1.090565946E+01 -8.614548729E+01 -5.706912802E+01  1.040164711E+02  4.750000000E+00  0.00000E+00  9.000E+00
      21     1     1     2   501   512 -1.330072052E+01 -6.066351619E+00  2.913710809E+00  1.490635767E+01  5.413860716E-07  0.00000E+00  9.000E+00
      21     1     4     4   507   511  4.933368401E+00  3.030916000E-01  2.711868870E+00  5.637749645E+00  3.987278986E-07  0.00000E+00  9.000E+00
      21     1     3     3   514   502 -3.073522070E-01 -3.234702712E+00 -1.131735574E+00  3.440725566E+00  5.771194914E-08  0.00000E+00  9.000E+00
#rwgt            1          17   8.8291526745604667                1     3549895           0       11011           0
<weights>
0.15523E+02
</weights>
</event>
<event>
     15  10001  1.35503E+01  1.44866E+01 -1.00000E+00  2.85517E-01
       4    -1     0     0   512     0  0.000000000E+00  0.000000000E+00  7.778051391E+02  7.778051391E+02  0.000000000E+00  0.00000E+00  9.000E+00
      -4    -1     0     0     0   502  0.000000000E+00  0.000000000E+00 -7.453470652E+01  7.453470652E+01  0.000000000E+00  0.00000E+00  9.000E+00
      -6     2     1     2     0   502  5.446703185E+01  8.258507590E+01  3.453309544E+02  3.981057713E+02  1.716035684E+02  0.00000E+00  9.000E+00
       6     2     1     2   507     0 -4.519526446E+01 -9.371591444E+01  3.784157771E+02  4.291514100E+02  1.736293404E+02  0.00000E+00  9.000E+00
     -24     2     3     3     0     0 -1.632422682E+01  9.602953589E+01  2.107190533E+02  2.450836316E+02  7.858317186E+01  0.00000E+00  9.000E+00
      24     2     4     4     0     0 -2.369886266E+01 -7.504563784E+01  3.533273786E+02  3.743511363E+02  9.542040100E+01  0.00000E+00  9.000E+00
     -11     1     6     6     0     0  2.862500540E+01  3.471556782E+00  6.922377140E+01  7.498915366E+01  0.000000000E+00  0.00000E+00  9.000E+00
      12     1     6     6     0     0 -5.232386806E+01 -7.851719463E+01  2.841036072E+02  2.993619826E+02  6.607249480E-06  0.00000E+00  9.000E+00
      13     1     5     5     0     0 -2.660363909E+01  7.059366311E+01  2.030289859E+02  2.165917542E+02  0.000000000E+00  0.00000E+00  9.000E+00
     -14     1     5     5     0     0  1.027941227E+01  2.543587278E+01  7.690067471E+00  2.849187741E+01  6.899736466E-07  0.00000E+00  9.000E+00
       5     1     4     4   511     0 -1.465039976E+01  4.009847410E-01 -6.942427294E+00  1.689836674E+01  4.750000000E+00  0.00000E+00  9.000E+00
      -5     1     3     3     0   513  6.154167917E+01 -1.335592312E+01  1.220625286E+02  1.374321008E+02  4.750000000E+00  0.00000E+00  9.000E+00
      21     1     4     4   507   511 -6.846002040E+00 -1.907126134E+01  3.203082577E+01  3.790190698E+01  4.768371582E-07  0.00000E+00  9.000E+00
      21     1     1     2   512   507 -9.271767394E+00  1.113083855E+01 -2.047629888E+01  2.508266439E+01  1.066240300E-06  0.00000E+00  9.000E+00
      21     1     3     3   513   502  9.249579499E+00 -8.853686993E-02  1.254937251E+01  1.559003881E+01  1.685873940E-07  0.00000E+00  9.000E+00
#rwgt            1          12  0.19624486574545305                1     3558180           0      100111           0
<weights>
0.18142E+02
</weights>
</event>
<event>
     15  10001  1.35503E+01  4.33927E+01 -1.00000E+00  3.81223E-01
      21    -1     0     0   507   512  0.000000000E+00  0.000000000E+00  5.275114216E+01  5.275114216E+01  0.000000000E+00  0.00000E+00  9.000E+00
      21    -1     0     0   501   502  0.000000000E+00  0.000000000E+00 -1.441598184E+03  1.441598184E+03  0.000000000E+00  0.00000E+00  9.000E+00
      -6     2     1     2     0   502  5.547680898E+01 -1.508923077E+01 -3.278360047E+02  3.748457565E+02  1.724167450E+02  0.00000E+00  9.000E+00
       6     2     1     2   507     0 -6.307815535E+01  5.781100156E+01 -1.058751928E+03  1.076052059E+03  1.720796992E+02  0.00000E+00  9.000E+00
     -24     2     3     3     0     0  7.343828492E+01 -5.461248848E+01 -1.604714311E+02  2.016412982E+02  8.082343317E+01  0.00000E+00  9.000E+00
      24     2     4     4     0     0 -3.691236077E+01  6.842265149E+01 -3.771918825E+02  3.936143259E+02  8.132859124E+01  0.00000E+00  9.000E+00
     -11     1     6     6     0     0  2.581051337E+01  1.448401981E+01 -8.967130365E+01  9.442940289E+01  0.000000000E+00  0.00000E+00  9.000E+00
      12     1     6     6     0     0 -6.272287414E+01  5.393863168E+01 -2.875205788E+02  2.991849230E+02  3.814697266E-06  0.00000E+00  9.000E+00
      13     1     5     5     0     0  4.352701715E+01  9.945111439E+00 -3.251442266E+01  5.523308922E+01  0.000000000E+00  0.00000E+00  9.000E+00
     -14     1     5     5     0     0  2.991126777E+01 -6.455759992E+01 -1.279570085E+02  1.464082090E+02  1.348699152E-06  0.00000E+00  9.000E+00
       5     1     4     4   511     0 -1.439281301E+00 -1.862895283E+00 -2.648545225E+02  2.649075735E+02  4.750000000E+00  0.00000E+00  9.000E+00
      -5     1     3     3     0   514 -1.705647879E+01  3.765945720E+01 -1.644172829E+02  1.696017795E+02  4.750000000E+00  0.00000E+00  9.000E+00
      21     1     1     2   501   512  7.601346368E+00 -4.272177079E+01 -2.259108577E+00  4.345151019E+01  1.115100797E-06  0.00000E+00  9.000E+00
      21     1     4     4   507   511 -2.472651328E+01 -8.748754648E+00 -4.167055235E+02  4.175301599E+02  7.629394531E-06  0.00000E+00  9.000E+00
      21     1     3     3   514   502 -9.049971560E-01  1.863800515E+00 -2.947290707E+00  3.602678826E+00  0.000000000E+00  0.00000E+00  9.000E+00
#rwgt            1          17   22.025320369835139                1     3562458           0       11011           0
<weights>
0.12446E+02
</weights>
</event>
<event>
     15  10001  1.35503E+01  2.78750E+01 -1.00000E+00  6.70108E-01
      21    -1     0     0   502   511  0.000000000E+00  0.000000000E+00  1.475735256E+02  1.475735256E+02  0.000000000E+00  0.00000E+00  9.000E+00
      21    -1     0     0   507   502  0.000000000E+00  0.000000000E+00 -1.491510065E+03  1.491510065E+03  0.000000000E+00  0.00000E+00  9.000E+00
      -6     2     1     2     0   501  1.165384423E+02 -1.141996326E+02  3.036935662E+01  2.396497001E+02  1.728783280E+02  0.00000E+00  9.000E+00
       6     2     1     2   507     0 -1.056218109E+02  8.855121769E+01 -9.924885761E+02  1.016600402E+03  1.715969662E+02  0.00000E+00  9.000E+00
     -24     2     3     3     0     0  6.506128094E+01 -2.118723836E+01 -4.408060178E+01  1.096963140E+02  7.354123002E+01  0.00000E+00  9.000E+00
      24     2     4     4     0     0 -9.595003378E+01  3.485247319E+01 -8.579781658E+02  8.674338303E+02  7.677117394E+01  0.00000E+00  9.000E+00
     -11     1     6     6     0     0  6.484726090E+00 -1.310417785E+01 -9.603906926E+01  9.714563281E+01  0.000000000E+00  0.00000E+00  9.000E+00
      12     1     6     6     0     0 -1.024347599E+02  4.795665104E+01 -7.619390965E+02  7.702881975E+02  2.157918644E-05  0.00000E+00  9.000E+00
      13     1     5     5     0     0  1.368810901E+01  2.157396685E+01  5.915428078E+00  2.622580148E+01  0.000000000E+00  0.00000E+00  9.000E+00
     -14     1     5     5     0     0  5.137317193E+01 -4.276120520E+01 -4.999602986E+01  8.347051255E+01  2.431401974E-06  0.00000E+00  9.000E+00
       5     1     4     4   512     0 -6.587177131E+00  4.241179728E+01 -6.104014408E+01  7.477040284E+01  4.750000000E+00  0.00000E+00  9.000E+00
      -5     1     3     3     0   513  4.854831584E+01 -8.825771768E+01  7.166907882E+01  1.237149266E+02  4.750000000E+00  0.00000E+00  9.000E+00
      21     1     1     2   501   511 -1.091663139E+01  2.564841490E+01 -3.818173200E+02  3.828334885E+02  7.629394531E-06  0.00000E+00  9.000E+00
      21     1     4     4   507   512 -3.084599974E+00  1.128694722E+01 -7.347026628E+01  7.439616900E+01  9.536743164E-07  0.00000E+00  9.000E+00
      21     1     3     3   513   501  2.928845501E+00 -4.754676556E+00  2.780879581E+00  6.238459455E+00  2.043144286E-07  0.00000E+00  9.000E+00
#rwgt            1          17   24.325126670917008                1     3566671           0       11011           0
<weights>
0.16236E+02
</weights>
</event>
<event>
     15  10001 -1.35503E+01  1.37111E+01 -1.00000E+00  1.45358E-01
      21    -1     0     0   511   501  0.000000000E+00  0.000000000E+00  4.295397383E+02  4.295397383E+02  0.000000000E+00  0.00000E+00  9.000E+00
      21    -1     0     0   501   502  0.000000000E+00  0.000000000E+00 -3.497287997E+02  3.497287997E+02  0.000000000E+00  0.00000E+00  9.000E+00
      -6     2     1     2     0   502  2.074332170E+02 -1.366250336E+02 -1.838150668E+02  3.547778630E+02  1.743112560E+02  0.00000E+00  9.000E+00
       6     2     1     2   507     0 -2.083759702E+02  1.229464122E+02  2.785263274E+02  4.042418956E+02  1.652217597E+02  0.00000E+00  9.000E+00
     -24     2     3     3     0     0  2.191267463E+02 -8.590880550E+01 -1.624005171E+02  2.963259435E+02  7.770638974E+01  0.00000E+00  9.000E+00
      24     2     4     4     0     0 -7.515344895E+01  1.116655082E+02  1.734363306E+02  2.340599503E+02  8.115832030E+01  0.00000E+00  9.000E+00
     -11     1     6     6     0     0  1.621391249E+01  3.031314986E+01  3.090522189E+01  4.622673201E+01  0.000000000E+00  0.00000E+00  9.000E+00
      12     1     6     6     0     0 -9.136736144E+01  8.135235837E+01  1.425311087E+02  1.878332183E+02  1.907348633E-06  0.00000E+00  9.000E+00
      13     1     5     5     0     0  3.505356060E+01  1.287521910E+01 -1.318207890E+01  3.960164873E+01  0.000000000E+00  0.00000E+00  9.000E+00
     -14     1     5     5     0     0  1.840731857E+02 -9.878402460E+01 -1.492184382E+02  2.567242947E+02  3.814697266E-06  0.00000E+00  9.000E+00
       5     1     4     4   514     0 -1.230922695E+02  1.138267959E+01  9.637120805E+01  1.568159573E+02  4.750000000E+00  0.00000E+00  9.000E+00
      -5     1     3     3     0   512  2.218546377E+00 -9.691749095E+00 -5.360909218E+00  1.225372581E+01  4.750000000E+00  0.00000E+00  9.000E+00
      21     1     3     3   512   502 -1.391207570E+01 -4.102447904E+01 -1.605364050E+01  4.619819373E+01  8.259061849E-07  0.00000E+00  9.000E+00
      21     1     1     2   511   507  9.427532513E-01  1.367862148E+01 -1.490032209E+01  2.024877941E+01  2.920019320E-07  0.00000E+00  9.000E+00
      21     1     4     4   507   514 -1.013025178E+01 -1.017756629E-01  8.718788764E+00  1.336598806E+01  0.000000000E+00  0.00000E+00  9.000E+00
#rwgt            1          17  -199.65418458808767                1     3573527           0      110110           0
<weights>
-.13559E+02
</weights>
</event>
<event>
     14  10001  1.35503E+01  2.29787E+01 -1.00000E+00  5.97879E-01
      21    -1     0     0   511   501  0.000000000E+00  0.000000000E+00  1.386789063E+02  1.386789063E+02  0.000000000E+00  0.00000E+00  9.000E+00
      21    -1     0     0   501   502  0.000000000E+00  0.000000000E+00 -1.727547303E+03  1.727547303E+03  0.000000000E+00  0.00000E+00  9.000E+00
      -6     2     1     2     0   502  3.296305749E+01 -1.649984829E+01 -1.641460276E+03  1.650916328E+03  1.725516612E+02  0.00000E+00  9.000E+00
       6     2     1     2   507     0 -5.075936591E+01  3.103645034E+01  5.580823272E+01  1.921071589E+02  1.739276493E+02  0.00000E+00  9.000E+00
     -24     2     3     3     0     0 -3.538231006E+01 -3.806727981E+01 -6.953459381E+02  7.020604003E+02  8.174231709E+01  0.00000E+00  9.000E+00
      24     2     4     4     0     0 -8.715685067E+01  3.829312962E+01  3.539021812E-01  1.252103610E+02  8.133159824E+01  0.00000E+00  9.000E+00
     -11     1     6     6     0     0 -5.609571792E+01  4.235135049E+01  3.498547163E+01  7.851337263E+01  0.000000000E+00  0.00000E+00  9.000E+00
      12     1     6     6     0     0 -3.106113275E+01 -4.058220877E+00 -3.463156945E+01  4.669698842E+01  4.768371582E-07  0.00000E+00  9.000E+00
      13     1     5     5     0     0 -4.759356705E+01  4.186360524E+00 -4.729415548E+02  4.753487010E+02  0.000000000E+00  0.00000E+00  9.000E+00
     -14     1     5     5     0     0  1.221125699E+01 -4.225364033E+01 -2.224043833E+02  2.267116994E+02  2.697398305E-06  0.00000E+00  9.000E+00
       5     1     4     4   507     0  3.639748476E+01 -7.256679275E+00  5.545433053E+01  6.689679787E+01  4.750000000E+00  0.00000E+00  9.000E+00
      -5     1     3     3     0   512  6.653993093E+01  2.153467247E+01 -9.096853325E+02  9.123821958E+02  4.750000000E+00  0.00000E+00  9.000E+00
      21     1     1     2   511   507  1.779630842E+01 -1.453660205E+01 -3.216353214E+00  2.320272227E+01  8.481889648E-07  0.00000E+00  9.000E+00
      21     1     3     3   512   502  1.805436615E+00  3.275904479E-02 -3.642900530E+01  3.647373167E+01  6.743495762E-07  0.00000E+00  9.000E+00
#rwgt            1          17   49.323029107381892                1     3583535           0         111           0
<weights>
0.11824E+02
</weights>
</event>
<event>
     14  10001  1.35503E+01  3.95379E+01 -1.00000E+00  2.93946E-01
      21    -1     0     0   502   501  0.000000000E+00  0.000000000E+00  5.115848903E+02  5.115848903E+02  0.000000000E+00  0.00000E+00  9.000E+00
      21    -1     0     0   507   512  0.000000000E+00  0.000000000E+00 -2.019286817E+02  2.019286817E+02  0.000000000E+00  0.00000E+00  9.000E+00
      -6     2     1     2     0   501 -3.029776415E+01  7.769579757E+01  3.153368264E+02  3.685986929E+02  1.716772870E+02  0.00000E+00  9.000E+00
       6     2     1     2   507     0  6.905120387E+01 -8.553280263E+01  1.025521999E+02  2.296864514E+02  1.736519022E+02  0.00000E+00  9.000E+00
     -24     2     3     3     0     0 -6.169407670E+01  7.720911157E-01  2.085524572E+02  2.319009681E+02  8.048090690E+01  0.00000E+00  9.000E+00
      24     2     4     4     0     0 -1.696176745E+01 -8.460845850E+01  7.145967984E+01  1.380982810E+02  8.073633979E+01  0.00000E+00  9.000E+00
     -11     1     6     6     0     0  2.179254490E+01 -6.384041266E+01  1.988882126E+01  7.032836208E+01  0.000000000E+00  0.00000E+00  9.000E+00
      12     1     6     6     0     0 -3.875431235E+01 -2.076804584E+01  5.157085857E+01  6.776991890E+01  1.507891493E-06  0.00000E+00  9.000E+00
      13     1     5     5     0     0 -2.767293583E+01  7.684109656E+00  1.011423781E+01  3.044888709E+01  0.000000000E+00  0.00000E+00  9.000E+00
     -14     1     5     5     0     0 -3.402114088E+01 -6.912018540E+00  1.984382194E+02  2.014520810E+02  3.814697266E-06  0.00000E+00  9.000E+00
       5     1     4     4   507     0  8.601297132E+01 -9.243441350E-01  3.109252008E+01  9.158817038E+01  4.750000000E+00  0.00000E+00  9.000E+00
      -5     1     3     3     0   511  3.143309457E+01  7.720694279E+01  1.016063785E+02  1.315118630E+02  4.750000000E+00  0.00000E+00  9.000E+00
      21     1     1     2   502   512 -3.875343972E+01  7.837005059E+00 -1.082328176E+02  1.152284277E+02  1.348699152E-06  0.00000E+00  9.000E+00
      21     1     3     3   511   501 -3.678202102E-02 -2.832363327E-01  5.177990674E+00  5.185861853E+00  5.960464478E-08  0.00000E+00  9.000E+00
#rwgt            1          17   24.976238918365180                1     3594098           0         111           0
<weights>
0.20274E+02
</weights>
</event>
<event>
     15  10001  1.35503E+01  2.81766E+01 -1.00000E+00  2.76202E-01
      21    -1     0     0   502   511  0.000000000E+00  0.000000000E+00  8.265784568E+02  8.265784568E+02  0.000000000E+00  0.00000E+00  9.000E+00
      21    -1     0     0   507   502  0.000000000E+00  0.000000000E+00 -7.770979111E+01  7.770979111E+01  0.000000000E+00  0.00000E+00  9.000E+00
      -6     2     1     2     0   501 -6.277572225E+01  6.551138250E+01  1.181704278E+02  2.280636669E+02  1.726738359E+02  0.00000E+00  9.000E+00
       6     2     1     2   507     0  3.460585455E+01 -6.612532431E+01  3.825417375E+02  4.264735709E+02  1.731225059E+02  0.00000E+00  9.000E+00
     -24     2     3     3     0     0  4.364770011E+00 -1.015116759E+01  1.530578613E+01  8.284347645E+01  8.066397635E+01  0.00000E+00  9.000E+00
      24     2     4     4     0     0  7.264124717E+01 -7.806495479E+01  3.503290928E+02  3.743225496E+02  7.756294162E+01  0.00000E+00  9.000E+00
     -11     1     6     6     0     0  5.227502194E+01 -7.186983125E+00  2.005089752E+02  2.073359105E+02  0.000000000E+00  0.00000E+00  9.000E+00
      12     1     6     6     0     0  2.036622522E+01 -7.087797167E+01  1.498201176E+02  1.669866391E+02  2.697398305E-06  0.00000E+00  9.000E+00
      13     1     5     5     0     0  3.682867459E+01  1.158053885E+01  2.002893933E+01  4.349274150E+01  0.000000000E+00  0.00000E+00  9.000E+00
     -14     1     5     5     0     0 -3.246390458E+01 -2.173170644E+01 -4.723153198E+00  3.935073496E+01  1.441644028E-06  0.00000E+00  9.000E+00
       5     1     4     4   512     0 -3.319219845E+01  9.243334146E+00  3.073295449E+01  4.641377226E+01  4.750000000E+00  0.00000E+00  9.000E+00
      -5     1     3     3     0   513 -6.338442697E+01  7.552747540E+01  9.835076408E+01  1.393464044E+02  4.750000000E+00  0.00000E+00  9.000E+00
      21     1     1     2   501   511  2.816986770E+01  6.139418144E-01  2.481565004E+02  2.497510101E+02  6.031565972E-06  0.00000E+00  9.000E+00
      21     1     4     4   507   512 -4.843194164E+00  2.696296334E+00  1.479690229E+00  5.737249062E+00  3.002500784E-07  0.00000E+00  9.000E+00
      21     1     3     3   513   501 -3.756065292E+00  1.350746954E-01  4.513877563E+00  5.873786028E+00  1.032382731E-07  0.00000E+00  9.000E+00
#rwgt            1          17   41.813863577215955                1     3605268           0       11011           0
<weights>
0.15302E+02
</weights>
</event>
<event>
     15  10001  1.35503E+01  2.19302E+01 -1.00000E+00  4.18704E-01
      21    -1     0     0   511   501  0.000000000E+00  0.000000000E+00  1.915223793E+03  1.915223793E+03  0.000000000E+00  0.00000E+00  9.000E+00
      21    -1     0     0   507   502  0.000000000E+00  0.000000000E+00 -1.794490952E+02  1.794490952E+02  0.000000000E+00  0.00000E+00  9.000E+00
      -6     2     1     2     0   501 -2.381602600E-01  6.108133772E+01  1.821750246E+02  2.584305901E+02  1.728225789E+02  0.00000E+00  9.000E+00
       6     2     1     2   507     0  3.368914465E+00 -3.937579130E+01 -8.723363758E+01  1.952624426E+02  1.701643660E+02  0.00000E+00  9.000E+00
     -24     2     3     3     0     0  5.550973174E+01  3.311438957E+01  5.309896871E+01  1.148239093E+02  7.865835331E+01  0.00000E+00  9.000E+00
      24     2     4     4     0     0  2.788969433E+01  9.156726638E+00 -4.570626869E+01  9.692937539E+01  8.027801769E+01  0.00000E+00  9.000E+00
     -11     1     6     6     0     0  2.604546523E+01 -1.402844000E+01  1.409133755E+01  3.276780710E+01  0.000000000E+00  0.00000E+00  9.000E+00
      12     1     6     6     0     0  1.844229098E+00  2.318516664E+01 -5.979760624E+01  6.416156829E+01  2.697398305E-06  0.00000E+00  9.000E+00
      13     1     5     5     0     0  1.234589713E+01  3.074045847E+01 -1.321367938E+01  3.566508497E+01  0.000000000E+00  0.00000E+00  9.000E+00
     -14     1     5     5     0     0  4.316383461E+01  2.373931102E+00  6.631264809E+01  7.915882430E+01  1.651812370E-06  0.00000E+00  9.000E+00
       5     1     4     4   512     0 -2.567593147E+01 -5.013479476E+01 -5.844012116E+01  8.130535877E+01  4.750000000E+00  0.00000E+00  9.000E+00
      -5     1     3     3     0   514 -5.304905664E+01  2.524077890E+01  1.234368009E+02  1.367863504E+02  4.750000000E+00  0.00000E+00  9.000E+00
      21     1     4     4   507   512  1.155151609E+00  1.602276820E+00  1.691275227E+01  1.702770847E+01  6.307962682E-07  0.00000E+00  9.000E+00
      21     1     1     2   511   502 -3.130754205E+00 -2.170554642E+01  1.640833311E+03  1.640979856E+03  2.157918644E-05  0.00000E+00  9.000E+00
      21     1     3     3   514   501 -2.698835359E+00  2.726169252E+00  5.639254971E+00  6.820330469E+00  5.960464478E-08  0.00000E+00  9.000E+00
#rwgt            1          17   14.161011069959397                1     3611219           0      100111           0
<weights>
0.14513E+02
</weights>
</event>
<event>
     15  10001  1.35503E+01  2.49893E+01 -1.00000E+00  2.26944E-01
      21    -1     0     0   502   501  0.000000000E+00  0.000000000E+00  4.042265440E+02  4.042265440E+02  0.000000000E+00  0.00000E+00  9.000E+00
      21    -1     0     0   511   502  0.000000000E+00  0.000000000E+00 -2.049806438E+02  2.049806438E+02  0.000000000E+00  0.00000E+00  9.000E+00
      -6     2     1     2     0   501  5.586689158E+01 -9.531567290E+01  1.739944581E+02  2.685383187E+02  1.721411342E+02  0.00000E+00  9.000E+00
       6     2     1     2   507     0 -4.001027113E+01  7.600162295E+01 -9.704907919E+01  2.158414585E+02  1.726034268E+02  0.00000E+00  9.000E+00
     -24     2     3     3     0     0 -8.030004277E+00 -2.615121832E+01  1.416660637E+02  1.661584424E+02  8.240744623E+01  0.00000E+00  9.000E+00
      24     2     4     4     0     0 -2.689435141E+01  7.291119095E+01  4.678762266E+00  1.123280742E+02  8.097133776E+01  0.00000E+00  9.000E+00
     -11     1     6     6     0     0  2.372982341E+01  4.311235074E+01  1.744760293E+01  5.221300751E+01  0.000000000E+00  0.00000E+00  9.000E+00
      12     1     6     6     0     0 -5.062417482E+01  2.979884021E+01 -1.276884066E+01  6.011506671E+01  2.261837239E-06  0.00000E+00  9.000E+00
      13     1     5     5     0     0  1.306981273E+00 -3.643404480E+01  1.614695295E+01  3.987319790E+01  0.000000000E+00  0.00000E+00  9.000E+00
     -14     1     5     5     0     0 -9.336985549E+00  1.028282649E+01  1.255191108E+02  1.262852445E+02  1.907348633E-06  0.00000E+00  9.000E+00
       5     1     4     4   513     0 -1.303578742E+01  1.986167069E+00 -1.013923900E+02  1.023565136E+02  4.750000000E+00  0.00000E+00  9.000E+00
      -5     1     3     3     0   512  6.055030388E+01 -7.059293886E+01  2.924113003E+01  9.760793258E+01  4.750000000E+00  0.00000E+00  9.000E+00
      21     1     1     2   511   507 -1.585662044E+01  1.931404995E+01  1.223005213E+02  1.248274106E+02  2.697398305E-06  0.00000E+00  9.000E+00
      21     1     3     3   512   501  3.346591969E+00  1.428484269E+00  3.087264371E+00  4.771943672E+00  1.264405455E-07  0.00000E+00  9.000E+00
      21     1     4     4   507   513 -8.013230214E-02  1.104264934E+00 -3.354514186E-01  1.156870729E+00  1.535976539E-08  0.00000E+00  9.000E+00
#rwgt            1          17   45.252241220006326                1     3616554           0       11110           0
<weights>
0.12755E+02
</weights>
</event>
<event>
     14  10001 -1.35503E+01  1.86155E+01 -1.00000E+00  2.44007E-01
       2    -1     0     0   512     0  0.000000000E+00  0.000000000E+00  8.695881994E+01  8.695881994E+01  0.000000000E+00  0.00000E+00  9.000E+00
      -2    -1     0     0     0   502  0.000000000E+00  0.000000000E+00 -6.727018850E+02  6.727018850E+02  0.000000000E+00  0.00000E+00  9.000E+00
      -6     2     1     2     0   502  1.353556821E+02  4.561815368E+01 -2.196558525E+02  3.132393858E+02  1.716625838E+02  0.00000E+00  9.000E+00
       6     2     1     2   507     0 -1.535804200E+02 -4.182405028E+01 -3.207079148E+02  3.973721911E+02  1.723800890E+02  0.00000E+00  9.000E+00
     -24     2     3     3     0     0  9.764212056E+01 -3.757275766E+01 -1.163605812E+02  1.751722804E+02  7.873910813E+01  0.00000E+00  9.000E+00
      24     2     4     4     0     0 -1.774287612E+02 -1.803928199E+01 -2.917868731E+02  3.527241482E+02  8.641969939E+01  0.00000E+00  9.000E+00
     -11     1     6     6     0     0 -1.699707021E+02 -1.582984540E-01 -2.179706930E+02  2.764078285E+02  0.000000000E+00  0.00000E+00  9.000E+00
      12     1     6     6     0     0 -7.458059073E+00 -1.788098354E+01 -7.381618008E+01  7.631631974E+01  1.348699152E-06  0.00000E+00  9.000E+00
      13     1     5     5     0     0  1.719895158E+01  2.792557751E+00  9.958459459E+00  2.006921098E+01  0.000000000E+00  0.00000E+00  9.000E+00
     -14     1     5     5     0     0  8.044316897E+01 -4.036531541E+01 -1.263190406E+02  1.551030694E+02  2.336015456E-06  0.00000E+00  9.000E+00
       5     1     4     4   507     0  2.384834123E+01 -2.378476829E+01 -2.892104175E+01  4.464804293E+01  4.750000000E+00  0.00000E+00  9.000E+00
      -5     1     3     3     0   511  1.932083472E+01  4.375815326E+01 -5.242740837E+01  7.112851945E+01  4.750000000E+00  0.00000E+00  9.000E+00
      21     1     1     2   512   507  1.822473790E+01 -3.794103402E+00 -4.537929769E+01  4.904912793E+01  9.536743164E-07  0.00000E+00  9.000E+00
      21     1     3     3   511   502  1.839272678E+01  3.943275808E+01 -5.086786296E+01  6.693858596E+01  1.168007728E-06  0.00000E+00  9.000E+00
#rwgt            1           8 -0.15155545857959468                1     3626443           0         111           0
<weights>
-.14836E+02
</weights>
</event>
<event>
     15  10001  1.35503E+01  1.29800E+01 -1.00000E+00  5.63037E-01
      21    -1     0     0   507   511  0.000000000E+00  0.000000000E+00  9.009332448E+02  9.009332448E+02  0.000000000E+00  0.00000E+00  9.000E+00
      21    -1     0     0   501   502  0.000000000E+00  0.000000000E+00 -3.020358626E+02  3.020358626E+02  0.000000000E+00  0.00000E+00  9.000E+00
      -6     2     1     2     0   502  2.754844246E+02 -1.426851373E+02 -9.650363110E+01  3.685201366E+02  1.739063646E+02  0.00000E+00  9.000E+00
       6     2     1     2   507     0 -2.725127918E+02  1.300498665E+02  7.240082620E+02  8.030347168E+02  1.717573970E+02  0.00000E+00  9.000E+00
     -24     2     3     3     0     0  1.266491033E+02 -9.886293008E+01  1.219295488E+01  1.789858701E+02  7.793201679E+01  0.00000E+00  9.000E+00
      24     2     4     4     0     0 -1.022739767E+02  8.275193134E+01  4.612686479E+02  4.863484708E+02  8.036305773E+01  0.00000E+00  9.000E+00
     -11     1     6     6     0     0 -4.064170169E+00  5.057764572E+01  1.447957539E+02  1.534288958E+02  0.000000000E+00  0.00000E+00  9.000E+00
      12     1     6     6     0     0 -9.820980657E+01  3.217428562E+01  3.164728940E+02  3.329195749E+02  9.344061824E-06  0.00000E+00  9.000E+00
      13     1     5     5     0     0  1.068168563E+02 -3.887365153E+01 -4.071654110E+00  1.137434830E+02  0.000000000E+00  0.00000E+00  9.000E+00
     -14     1     5     5     0     0  1.983224698E+01 -5.998927855E+01  1.626460898E+01  6.524238704E+01  1.118282261E-06  0.00000E+00  9.000E+00
       5     1     4     4   514     0 -1.609423175E+02  4.546883493E+01  2.495818588E+02  3.004721472E+02  4.750000000E+00  0.00000E+00  9.000E+00
      -5     1     3     3     0   512  1.356634353E+02 -4.089511095E+01 -9.954577987E+01  1.732307784E+02  4.750000000E+00  0.00000E+00  9.000E+00
      21     1     1     2   501   511 -2.971632823E+00  1.263527085E+01 -2.860724879E+01  3.141425400E+01  3.371747881E-07  0.00000E+00  9.000E+00
      21     1     3     3   512   502  1.317188602E+01 -2.927096299E+00 -9.150806110E+00  1.630348817E+01  5.196212463E-07  0.00000E+00  9.000E+00
      21     1     4     4   507   514 -9.296497510E+00  1.829100207E+00  1.315775537E+01  1.621409880E+01  3.371747881E-07  0.00000E+00  9.000E+00
#rwgt            1          17   20.613805513216384                1     3630033           0       11110           0
<weights>
0.14376E+02
</weights>
</event>
<event>
     13  10001  1.35503E+01  4.71055E+01 -1.00000E+00  7.48772E-01
      21    -1     0     0   507   512  0.000000000E+00  0.000000000E+00  3.584087216E+02  3.584087216E+02  0.000000000E+00  0.00000E+00  9.000E+00
      21    -1     0     0   501   502  0.000000000E+00  0.000000000E+00 -4.054831226E+02  4.054831226E+02  0.000000000E+00  0.00000E+00  9.000E+00
      -6     2     1     2     0   502  6.321637278E+01  6.784497966E+01 -2.626635617E+02  3.231563288E+02  1.638249527E+02  0.00000E+00  9.000E+00
       6     2     1     2   507     0 -1.054295286E+02 -4.694099992E+01 -1.289191723E+01  2.074491467E+02  1.719014368E+02  0.00000E+00  9.000E+00
     -24     2     3     3     0     0  1.038757136E+02  6.283056384E+01 -1.895987294E+02  2.392554434E+02  8.097928962E+01  0.00000E+00  9.000E+00
      24     2     4     4     0     0  8.033430478E+00 -3.912262677E+01  1.904549972E+01  8.922253741E+01  7.747783032E+01  0.00000E+00  9.000E+00
     -11     1     6     6     0     0 -1.533011071E+01  1.328348048E+01  2.424245409E+01  3.160948795E+01  0.000000000E+00  0.00000E+00  9.000E+00
      12     1     6     6     0     0  2.336354119E+01 -5.240610725E+01 -5.196954365E+00  5.761304946E+01  1.597137571E-06  0.00000E+00  9.000E+00
      13     1     5     5     0     0  7.553110537E+00  4.230349269E+01 -3.266402447E+01  5.397752743E+01  0.000000000E+00  0.00000E+00  9.000E+00
     -14     1     5     5     0     0  9.632260305E+01  2.052707115E+01 -1.569347050E+02  1.852779159E+02  1.907348633E-06  0.00000E+00  9.000E+00
       5     1     4     4   507     0 -1.134629591E+02 -7.818373149E+00 -3.193741695E+01  1.182266093E+02  4.750000000E+00  0.00000E+00  9.000E+00
      -5     1     3     3     0   502 -4.065934080E+01  5.014415816E+00 -7.306483223E+01  8.390088539E+01  4.750000000E+00  0.00000E+00  9.000E+00
      21     1     1     2   501   512  4.221315582E+01 -2.090397974E+01  2.284810778E+02  2.332863687E+02  0.000000000E+00  0.00000E+00  9.000E+00
#rwgt            1          17   104.24543486471839                1     3644834           0           1           0
<weights>
0.14895E+02
</weights>
</event>
<event>
     15  10001  1.35503E+01  8.07878E+00 -1.00000E+00  3.47681E-01
       2    -1     0     0   511     0  0.000000000E+00  0.000000000E+00  2.275811840E+03  2.275811840E+03  0.000000000E+00  0.00000E+00  9.000E+00
      -2    -1     0     0     0   502  0.000000000E+00  0.000000000E+00 -2.503938431E+01  2.503938431E+01  0.000000000E+00  0.00000E+00  9.000E+00
      -6     2     1     2     0   502 -5.650960353E+01 -1.296871178E+02  1.316666824E+03  1.335386324E+03  1.721424547E+02  0.00000E+00  9.000E+00
       6     2     1     2   507     0  5.624124487E+01  1.216127956E+02  9.319672039E+02  9.571078932E+02  1.718717558E+02  0.00000E+00  9.000E+00
     -24     2     3     3     0     0  3.508987758E+01 -7.134950792E+01  6.632069458E+02  6.728946684E+02  8.137401316E+01  0.00000E+00  9.000E+00
      24     2     4     4     0     0  6.243122263E+00  1.086708743E+02  8.424057481E+02  8.532864734E+02  8.125285098E+01  0.00000E+00  9.000E+00
     -11     1     6     6     0     0 -7.148151673E+00  1.187480217E+02  7.491680961E+02  7.585545629E+02  0.000000000E+00  0.00000E+00  9.000E+00
      12     1     6     6     0     0  1.339127394E+01 -1.007714734E+01  9.323765198E+01  9.473191048E+01  2.336015456E-06  0.00000E+00  9.000E+00
      13     1     5     5     0     0  3.939267364E+01 -3.790157225E+01  5.872384288E+02  5.897773174E+02  0.000000000E+00  0.00000E+00  9.000E+00
     -14     1     5     5     0     0 -4.302796060E+00 -3.344793567E+01  7.596851697E+01  8.311735093E+01  0.000000000E+00  0.00000E+00  9.000E+00
       5     1     4     4   513     0  4.551669100E+01  1.375890997E+01  7.915516907E+01  9.246177618E+01  4.750000000E+00  0.00000E+00  9.000E+00
      -5     1     3     3     0   512 -8.626663721E+01 -5.457111836E+01  6.007913163E+02  6.094199766E+02  4.750000000E+00  0.00000E+00  9.000E+00
      21     1     1     2   511   507  2.683586652E-01  8.074322168E+00  2.138427667E+00  8.357007103E+00  7.771494872E-07  0.00000E+00  9.000E+00
      21     1     4     4   507   513  4.481431608E+00 -8.169886616E-01  1.040628670E+01  1.135964360E+01  2.665600750E-07  0.00000E+00  9.000E+00
      21     1     3     3   512   502 -5.332843900E+00 -3.766491528E+00  5.266856201E+01  5.307167896E+01  0.000000000E+00  0.00000E+00  9.000E+00
#rwgt            1           8   1.6430905867401613                1     3656072           0       11011           0
<weights>
0.20505E+02
</weights>
</event>
<event>
     13  10001  1.35503E+01  2.04272E+02 -1.00000E+00  1.11315E-01
      21    -1     0     0   507   501  0.000000000E+00  0.000000000E+00  1.755414335E+02  1.755414335E+02  0.000000000E+00  0.00000E+00  9.000E+00
      21    -1     0     0   512   502  0.000000000E+00  0.000000000E+00 -8.738046179E+02  8.738046179E+02  0.000000000E+00  0.00000E+00  9.000E+00
      -6     2     1     2     0   502 -5.967473836E+01  1.824474432E+02 -2.127314183E+02  3.351546321E+02  1.738557653E+02  0.00000E+00  9.000E+00
       6     2     1     2   507     0  3.640500271E+00  1.398917374E+01  1.603755489E+01  1.726205893E+02  1.712650416E+02  0.00000E+00  9.000E+00
     -24     2     3     3     0     0 -9.106173580E+01  1.122237085E+02 -1.961852321E+02  2.563329644E+02  7.957099250E+01  0.00000E+00  9.000E+00
      24     2     4     4     0     0  3.242682652E+01 -7.588632006E+00 -4.627990817E+01  1.005076017E+02  8.276993225E+01  0.00000E+00  9.000E+00
     -11     1     6     6     0     0  1.048505673E+01 -1.958053885E+01  1.986225213E+01  2.979669405E+01  0.000000000E+00  0.00000E+00  9.000E+00
      12     1     6     6     0     0  2.194176979E+01  1.199190685E+01 -6.614216030E+01  7.071090765E+01  1.651812370E-06  0.00000E+00  9.000E+00
      13     1     5     5     0     0 -8.437325235E+01  5.796967153E+01 -8.747386588E+01  1.346514231E+02  0.000000000E+00  0.00000E+00  9.000E+00
     -14     1     5     5     0     0 -6.688483448E+00  5.425403697E+01 -1.087113663E+02  1.216815413E+02  1.348699152E-06  0.00000E+00  9.000E+00
       5     1     4     4   507     0 -2.878632625E+01  2.157780575E+01  6.231746306E+01  7.211298761E+01  4.750000000E+00  0.00000E+00  9.000E+00
      -5     1     3     3     0   502  3.138699744E+01  7.022373466E+01 -1.654618620E+01  7.882166768E+01  4.750000000E+00  0.00000E+00  9.000E+00
      21     1     1     2   512   501  5.603423808E+01 -1.964366169E+02 -5.015693210E+02  5.415708301E+02  9.344061824E-06  0.00000E+00  9.000E+00
#rwgt            2         113  0.87118744516190860                1     3675012           0           1           0
<weights>
0.13550E+02
</weights>
</event>
<event>
     15  10001  1.35503E+01  7.57060E+00 -1.00000E+00  4.61887E-01
      21    -1     0     0   502   501  0.000000000E+00  0.000000000E+00  9.460751335E+02  9.460751335E+02  0.000000000E+00  0.00000E+00  9.000E+00
      21    -1     0     0   512   502  0.000000000E+00  0.000000000E+00 -1.230656417E+02  1.230656417E+02  0.000000000E+00  0.00000E+00  9.000E+00
      -6     2     1     2     0   501 -7.038569212E+01 -5.536374924E+01  4.543982769E+02  4.939876611E+02  1.718334218E+02  0.00000E+00  9.000E+00
       6     2     1     2   507     0  7.003753403E+01  4.780115913E+01  4.502357734E+02  4.931782244E+02  1.825439737E+02  0.00000E+00  9.000E+00
     -24     2     3     3     0     0 -5.204512971E+01 -4.887064685E+01  1.312951146E+02  1.700063457E+02  8.103526880E+01  0.00000E+00  9.000E+00
      24     2     4     4     0     0  5.013644044E+01  6.892525183E+01  4.332833574E+02  4.487584903E+02  7.990845858E+01  0.00000E+00  9.000E+00
     -11     1     6     6     0     0  3.449946889E+01 -6.000412792E+00  2.054286935E+02  2.083918579E+02  0.000000000E+00  0.00000E+00  9.000E+00
      12     1     6     6     0     0  1.563697156E+01  7.492566462E+01  2.278546639E+02  2.403666324E+02  0.000000000E+00  0.00000E+00  9.000E+00
      13     1     5     5     0     0  1.773254023E+01 -2.868287219E+01  5.610708153E+01  6.546109331E+01  0.000000000E+00  0.00000E+00  9.000E+00
     -14     1     5     5     0     0 -6.977766994E+01 -2.018777466E+01  7.518803310E+01  1.045452524E+02  2.336015456E-06  0.00000E+00  9.000E+00
       5     1     4     4   511     0  1.595802256E+01 -2.806119165E+01  1.088914328E+01  3.439803631E+01  4.750000000E+00  0.00000E+00  9.000E+00
      -5     1     3     3     0   513 -1.721590348E+01 -5.993095605E+00  3.209410297E+02  3.214934083E+02  4.750000000E+00  0.00000E+00  9.000E+00
      21     1     4     4   507   511  3.943071025E+00  6.937098954E+00  6.063272717E+00  1.002169781E+01  1.685873940E-07  0.00000E+00  9.000E+00
      21     1     1     2   512   507  3.481580951E-01  7.562590106E+00 -8.162455861E+01  8.197488976E+01  4.264961200E-06  0.00000E+00  9.000E+00
      21     1     3     3   513   501 -1.124658933E+00 -5.000067829E-01  2.162132642E+00  2.487907165E+00  2.980232239E-08  0.00000E+00  9.000E+00
#rwgt            1          17   21.361030242258700                1     3675835           0      100111           0
<weights>
0.86133E+01
</weights>
</event>
<event>
     15  10001  1.35503E+01  6.78088E+01 -1.00000E+00  1.85312E-01
      21    -1     0     0   502   512  0.000000000E+00  0.000000000E+00  1.382760133E+02  1.382760133E+02  0.000000000E+00  0.00000E+00  9.000E+00
      21    -1     0     0   507   502  0.000000000E+00  0.000000000E+00 -2.494223639E+03  2.494223639E+03  0.000000000E+00  0.00000E+00  9.000E+00
      -6     2     1     2     0   501  1.344155068E+02  9.157323619E+01 -1.148651303E+02  2.716985552E+02  1.848591915E+02  0.00000E+00  9.000E+00
       6     2     1     2   507     0 -1.950179411E+02 -6.115309692E+01 -2.412559323E+02  3.598252545E+02  1.717500810E+02  0.00000E+00  9.000E+00
     -24     2     3     3     0     0  2.385059053E+01  1.403050780E+01 -1.038673721E+02  1.342686709E+02  8.046079278E+01  0.00000E+00  9.000E+00
      24     2     4     4     0     0 -1.943238070E+02 -5.379526093E+01 -2.587182635E+02  3.368691654E+02  7.674648281E+01  0.00000E+00  9.000E+00
     -11     1     6     6     0     0 -6.686236839E+01 -4.425563775E+01 -1.454428150E+02  1.660805534E+02  0.000000000E+00  0.00000E+00  9.000E+00
      12     1     6     6     0     0 -1.274614386E+02 -9.539623181E+00 -1.132754485E+02  1.707886120E+02  3.015782986E-06  0.00000E+00  9.000E+00
      13     1     5     5     0     0  3.260708856E+01  1.777248645E+00 -3.573610783E+00  3.285044187E+01  0.000000000E+00  0.00000E+00  9.000E+00
     -14     1     5     5     0     0 -8.756498025E+00  1.225325915E+01 -1.002937613E+02  1.014182290E+02  1.348699152E-06  0.00000E+00  9.000E+00
       5     1     4     4   514     0  1.824421368E+00 -4.795022258E+00  1.801173349E+01  1.932112303E+01  4.750000000E+00  0.00000E+00  9.000E+00
      -5     1     3     3     0   511  9.386293861E+01  5.542453317E+01 -1.147090271E+01  1.097099550E+02  4.750000000E+00  0.00000E+00  9.000E+00
      21     1     1     2   501   512  6.060243435E+01 -3.042013926E+01 -1.999826563E+03  2.000975842E+03  3.737624730E-05  0.00000E+00  9.000E+00
      21     1     3     3   511   501  1.670197764E+01  2.211819522E+01  4.731444612E-01  2.771992933E+01  5.776963226E-07  0.00000E+00  9.000E+00
      21     1     4     4   507   514 -2.518555532E+00 -2.562813736E+00 -5.494021997E-01  3.634966161E+00  8.363255978E-08  0.00000E+00  9.000E+00
#rwgt            1          17   5.4993586060183688                1     3682097           0       11110           0
<weights>
0.11113E+02
</weights>
</event>
<event>
     15  10001  1.35503E+01  1.40872E+02 -1.00000E+00  3.63723E-01
       2    -1     0     0   502     0  0.000000000E+00  0.000000000E+00  8.674777981E+02  8.674777981E+02  0.000000000E+00  0.00000E+00  9.000E+00
      21    -1     0     0   507   502  0.000000000E+00  0.000000000E+00 -2.583540114E+02  2.583540114E+02  0.000000000E+00  0.00000E+00  9.000E+00
      -6     2     1     2     0   501 -1.196946613E+02  1.373631027E+02  1.145038890E+01  2.597383483E+02  1.847632654E+02  0.00000E+00  9.000E+00
       6     2     1     2   507     0  1.510971441E+02 -2.746905700E+02  1.351884438E+02  3.826296239E+02  1.727549059E+02  0.00000E+00  9.000E+00
     -24     2     3     3     0     0 -3.837730543E+01  1.510665514E+02  7.119765065E+00  1.755378520E+02  8.042963324E+01  0.00000E+00  9.000E+00
      24     2     4     4     0     0  8.268628582E+01 -1.601633416E+02  1.467222079E+02  2.458924999E+02  8.028946001E+01  0.00000E+00  9.000E+00
     -11     1     6     6     0     0  5.037504475E+01 -1.512110569E+02  9.919414587E+01  1.877282809E+02  0.000000000E+00  0.00000E+00  9.000E+00
      12     1     6     6     0     0  3.231124107E+01 -8.952284662E+00  4.752806198E+01  5.816421904E+01  1.907348633E-06  0.00000E+00  9.000E+00
      13     1     5     5     0     0  1.786733115E+01  9.139055979E+01 -1.059506363E+00  9.312678720E+01  0.000000000E+00  0.00000E+00  9.000E+00
     -14     1     5     5     0     0 -5.624463658E+01  5.967599162E+01  8.179271428E+00  8.241106479E+01  2.973071078E-06  0.00000E+00  9.000E+00
       5     1     4     4   512     0  6.772548778E+01 -1.107343885E+02 -1.596128984E+01  1.308670003E+02  4.750000000E+00  0.00000E+00  9.000E+00
      -5     1     3     3     0   511 -8.185768544E+01 -1.420878742E+01  4.744978111E+00  8.335255019E+01  4.750000000E+00  0.00000E+00  9.000E+00
       2     1     1     2   501     0 -3.140248278E+01  1.373274674E+02  4.624849540E+02  4.834638372E+02  0.000000000E+00  0.00000E+00  9.000E+00
      21     1     4     4   507   512  6.853705179E-01 -3.792839982E+00  4.427525748E+00  5.870123689E+00  1.192092896E-07  0.00000E+00  9.000E+00
      21     1     3     3   511   501  5.403295329E-01  5.053386693E-01 -4.143542802E-01  8.479461329E-01  1.290478414E-08  0.00000E+00  9.000E+00
#rwgt            1          17   4.6694743032838382                1     3688443           0       11011           0
<weights>
0.19215E+02
</weights>
</event>
<event>
     15  10001  1.35503E+01  2.66882E+01 -1.00000E+00  6.52747E-01
      21    -1     0     0   511   501  0.000000000E+00  0.000000000E+00  2.463090885E+03  2.463090885E+03  0.000000000E+00  0.00000E+00  9.000E+00
      21    -1     0     0   507   502  0.000000000E+00  0.000000000E+00 -3.448807206E+01  3.448807206E+01  0.000000000E+00  0.00000E+00  9.000E+00
      -6     2     1     2     0   501 -1.011806768E+02 -9.020064700E+01  4.985729445E+02  5.446334979E+02  1.722700784E+02  0.00000E+00  9.000E+00
       6     2     1     2   507     0  1.025489596E+02  6.354758987E+01  9.791555076E+02  1.001696644E+03  1.734822006E+02  0.00000E+00  9.000E+00
     -24     2     3     3     0     0 -3.900944960E+01 -4.911364893E+01  4.326534524E+02  4.445791215E+02  8.079416877E+01  0.00000E+00  9.000E+00
      24     2     4     4     0     0  4.590988100E+01  7.413927692E+01  8.678955296E+02  8.758101659E+02  7.871751338E+01  0.00000E+00  9.000E+00
     -11     1     6     6     0     0  6.235358102E+01  3.015511759E+01  4.527378739E+02  4.580053303E+02  0.000000000E+00  0.00000E+00  9.000E+00
      12     1     6     6     0     0 -1.644370002E+01  4.398415933E+01  4.151576557E+02  4.178048356E+02  7.629394531E-06  0.00000E+00  9.000E+00
      13     1     5     5     0     0  4.985971376E+00 -1.936372243E+00 -1.582370920E+00  5.577933825E+00  0.000000000E+00  0.00000E+00  9.000E+00
     -14     1     5     5     0     0 -4.399542097E+01 -4.717727669E+01  4.342358233E+02  4.390011877E+02  7.629394531E-06  0.00000E+00  9.000E+00
       5     1     4     4   513     0  5.114571539E+01 -6.080458517E+00  9.961666998E+01  1.122448200E+02  4.750000000E+00  0.00000E+00  9.000E+00
      -5     1     3     3     0   512 -6.246054919E+01 -4.118077663E+01  6.567464951E+01  9.966392857E+01  4.750000000E+00  0.00000E+00  9.000E+00
      21     1     1     2   511   502 -1.368282755E+00  2.665305713E+01  9.508743612E+02  9.512488152E+02  0.000000000E+00  0.00000E+00  9.000E+00
      21     1     4     4   507   513  5.493363221E+00 -4.511228537E+00  1.164330802E+01  1.364165840E+01  1.685873940E-07  0.00000E+00  9.000E+00
      21     1     3     3   512   501  2.893219417E-01  9.377856517E-02  2.448425613E-01  3.904478007E-01  9.497663963E-09  0.00000E+00  9.000E+00
#rwgt            1          17   45.257545123445965                1     3694437           0       11011           0
<weights>
0.13702E+02
</weights>
</event>
<event>
     13  10001  1.35503E+01  1.68417E+02 -1.00000E+00  1.14435E-01
      21    -1     0     0   502   512  0.000000000E+00  0.000000000E+00  9.033225926E+02  9.033225926E+02  0.000000000E+00  0.00000E+00  9.000E+00
      21    -1     0     0   507   502  0.000000000E+00  0.000000000E+00 -9.019645007E+01  9.019645007E+01  0.000000000E+00  0.00000E+00  9.000E+00
      -6     2     1     2     0   501  4.925383995E+00 -1.049493763E+02  2.065703736E+02  2.898690664E+02  1.741095213E+02  0.00000E+00  9.000E+00
       6     2     1     2   507     0  3.022143460E+01 -5.975946001E+01  2.680152741E+02  3.255309921E+02  1.722025304E+02  0.00000E+00  9.000E+00
     -24     2     3     3     0     0 -3.051356489E+01 -2.507816423E+01  1.733407345E+02  1.962629713E+02  8.313935112E+01  0.00000E+00  9.000E+00
      24     2     4     4     0     0 -3.599428177E+00 -2.099829867E+01  2.601919557E+02  2.732811576E+02  8.080131733E+01  0.00000E+00  9.000E+00
     -11     1     6     6     0     0 -3.248558878E+01  9.179711512E+00  6.063633230E+01  6.939989464E+01  0.000000000E+00  0.00000E+00  9.000E+00
      12     1     6     6     0     0  2.888616060E+01 -3.017801018E+01  1.995556234E+02  2.038812630E+02  3.814697266E-06  0.00000E+00  9.000E+00
      13     1     5     5     0     0 -1.945184607E+01  2.993538905E+01  6.074357583E+01  7.045767409E+01  0.000000000E+00  0.00000E+00  9.000E+00
     -14     1     5     5     0     0 -1.106171881E+01 -5.501355328E+01  1.125971587E+02  1.258052973E+02  1.348699152E-06  0.00000E+00  9.000E+00
       5     1     4     4   507     0  3.382086278E+01 -3.876116135E+01  7.823318435E+00  5.224983444E+01  4.750000000E+00  0.00000E+00  9.000E+00
      -5     1     3     3     0   501  3.543894888E+01 -7.987121208E+01  3.322963909E+01  9.360609505E+01  4.750000000E+00  0.00000E+00  9.000E+00
      21     1     1     2   501   512 -3.514681860E+01  1.647088363E+02  3.385404948E+02  3.781189842E+02  6.607249480E-06  0.00000E+00  9.000E+00
#rwgt            2         113   1.7445690338866708                1     3710818           0           1           0
<weights>
0.13550E+02
</weights>
</event>
<event>
     15  10001  1.35503E+01  4.65794E+01 -1.00000E+00  2.05622E-01
       1    -1     0     0   507     0  0.000000000E+00  0.000000000E+00  3.370505260E+03  3.370505260E+03  0.000000000E+00  0.00000E+00  9.000E+00
      21    -1     0     0   501   502  0.000000000E+00  0.000000000E+00 -2.558499152E+01  2.558499152E+01  0.000000000E+00  0.00000E+00  9.000E+00
      -6     2     1     2     0   502 -4.704800474E+01 -2.238081466E+01  4.498090836E+02  4.840025162E+02  1.709263243E+02  0.00000E+00  9.000E+00
       6     2     1     2   507     0  4.772713735E+01 -2.419361652E+01  8.723937972E+02  8.888341009E+02  1.615299070E+02  0.00000E+00  9.000E+00
     -24     2     3     3     0     0  5.885206604E+00 -6.724664207E+01  2.378405495E+02  2.595235534E+02  7.891515223E+01  0.00000E+00  9.000E+00
      24     2     4     4     0     0 -4.399946181E+00 -6.453027201E+01  5.396927802E+02  5.493196552E+02  7.937424729E+01  0.00000E+00  9.000E+00
     -11     1     6     6     0     0  1.919043118E+01 -7.110746025E+01  3.253495026E+02  3.335818377E+02  0.000000000E+00  0.00000E+00  9.000E+00
      12     1     6     6     0     0 -2.359037736E+01  6.577188240E+00  2.143432775E+02  2.157378176E+02  3.814697266E-06  0.00000E+00  9.000E+00
      13     1     5     5     0     0 -2.886623004E+01 -5.075363824E+01  1.861392372E+02  1.950820511E+02  0.000000000E+00  0.00000E+00  9.000E+00
     -14     1     5     5     0     0  3.475143665E+01 -1.649300383E+01  5.170131224E+01  6.444150225E+01  4.101908334E-06  0.00000E+00  9.000E+00
       5     1     4     4   513     0  4.629435266E+01  3.898034718E+01  3.158535259E+02  3.216343372E+02  4.750000000E+00  0.00000E+00  9.000E+00
      -5     1     3     3     0   511 -5.532953245E+01  4.040423415E+01  1.933711476E+02  2.052043433E+02  4.750000000E+00  0.00000E+00  9.000E+00
       1     1     1     2   501     0 -6.791326116E-01  4.657443118E+01  2.022717388E+03  2.023253635E+03  0.000000000E+00  0.00000E+00  9.000E+00
      21     1     3     3   511   502  2.396321107E+00  4.461593266E+00  1.859738657E+01  1.927461949E+01  0.000000000E+00  0.00000E+00  9.000E+00
      21     1     4     4   507   513  5.832730876E+00  1.356308313E+00  1.684749111E+01  1.788010845E+01  2.384185791E-07  0.00000E+00  9.000E+00
#rwgt            1          17   20.030581948982988                1     3715337           0       11110           0
<weights>
0.16671E+02
</weights>
</event>
<event>
     13  10001  1.35503E+01  1.44058E+02 -1.00000E+00  1.17094E-01
      21    -1     0     0   507   501  0.000000000E+00  0.000000000E+00  2.197353746E+02  2.197353746E+02  0.000000000E+00  0.00000E+00  9.000E+00
      21    -1     0     0   511   502  0.000000000E+00  0.000000000E+00 -7.716343416E+02  7.716343416E+02  0.000000000E+00  0.00000E+00  9.000E+00
      -6     2     1     2     0   502  3.551651071E+01  7.871814154E+00 -4.917194770E+01  1.827173469E+02  1.721753769E+02  0.00000E+00  9.000E+00
       6     2     1     2   507     0 -1.411805404E+02 -1.057894291E+02  3.886276050E+01  2.482308886E+02  1.702495568E+02  0.00000E+00  9.000E+00
     -24     2     3     3     0     0  7.994715788E+01  2.455574928E+00  1.244514949E+01  1.064110744E+02  6.907139135E+01  0.00000E+00  9.000E+00
      24     2     4     4     0     0 -1.675406316E+02 -6.725027675E+01  4.037470177E+01  2.012737897E+02  7.930043462E+01  0.00000E+00  9.000E+00
     -11     1     6     6     0     0 -2.282720496E+01 -3.574255018E+01  3.164096255E+01  5.291277436E+01  0.000000000E+00  0.00000E+00  9.000E+00
      12     1     6     6     0     0 -1.447134266E+02 -3.150772657E+01  8.733739217E+00  1.483610153E+02  5.840038640E-07  0.00000E+00  9.000E+00
      13     1     5     5     0     0  6.196052944E+01  1.006374835E+01 -2.224824614E+01  6.659857878E+01  0.000000000E+00  0.00000E+00  9.000E+00
     -14     1     5     5     0     0  1.798662844E+01 -7.608173417E+00  3.469339563E+01  3.981249560E+01  1.168007728E-06  0.00000E+00  9.000E+00
       5     1     4     4   507     0  2.636009115E+01 -3.853915232E+01 -1.511941269E+00  4.695709886E+01  4.750000000E+00  0.00000E+00  9.000E+00
      -5     1     3     3     0   502 -4.443064717E+01  5.416239226E+00 -6.161709718E+01  7.630627249E+01  4.750000000E+00  0.00000E+00  9.000E+00
      21     1     1     2   511   501  1.056640297E+02  9.791761492E+01 -5.415897798E+02  5.604214807E+02  7.629394531E-06  0.00000E+00  9.000E+00
#rwgt            2         113   6.1888228484743788                1     3728278           0           1           0
<weights>
0.13550E+02
</weights>
</event>
<event>
     15  10001  1.35503E+01  9.07768E+00 -1.00000E+00  2.62867E-01
      21    -1     0     0   507   513  0.000000000E+00  0.000000000E+00  3.655775924E+02  3.655775924E+02  0.000000000E+00  0.00000E+00  9.000E+00
      21    -1     0     0   501   502  0.000000000E+00  0.000000000E+00 -1.070057803E+02  1.070057803E+02  0.000000000E+00  0.00000E+00  9.000E+00
      -6     2     1     2     0   502 -5.332376057E+01  1.546050004E+01  7.062586293E+01  1.942650219E+02  1.722452778E+02  0.00000E+00  9.000E+00
       6     2     1     2   507     0  4.783284389E+01 -2.268919497E+01  1.959401550E+02  2.662224207E+02  1.722760936E+02  0.00000E+00  9.000E+00
     -24     2     3     3     0     0 -1.022212532E+02  8.143416254E+00  5.014573422E+01  1.399703110E+02  8.100366330E+01  0.00000E+00  9.000E+00
      24     2     4     4     0     0  2.824165414E+01  4.214918328E+01  6.026944125E+01  1.125638808E+02  8.039948406E+01  0.00000E+00  9.000E+00
     -11     1     6     6     0     0 -1.356895616E+01 -3.443503964E+00 -1.128123727E+01  1.797889332E+01  0.000000000E+00  0.00000E+00  9.000E+00
      12     1     6     6     0     0  4.181061030E+01  4.559268724E+01  7.155067852E+01  9.458498750E+01  0.000000000E+00  0.00000E+00  9.000E+00
      13     1     5     5     0     0 -3.438275035E+01  1.055789955E+00 -2.188444130E+01  4.077029538E+01  0.000000000E+00  0.00000E+00  9.000E+00
     -14     1     5     5     0     0 -6.783850285E+01  7.087626299E+00  7.203017552E+01  9.920001563E+01  1.348699152E-06  0.00000E+00  9.000E+00
       5     1     4     4   512     0  1.533075122E+01 -4.633603104E+01  1.177399685E+02  1.275434137E+02  4.750000000E+00  0.00000E+00  9.000E+00
      -5     1     3     3     0   511  3.901744166E+01  4.023962423E+00  1.348356211E+01  4.174831703E+01  4.750000000E+00  0.00000E+00  9.000E+00
      21     1     4     4   507   512  4.260438526E+00 -1.850234721E+01  1.793074529E+01  2.611512618E+01  3.371747881E-07  0.00000E+00  9.000E+00
      21     1     1     2   501   513  5.490916684E+00  7.228694930E+00 -7.994205878E+00  1.209593006E+01  4.380028980E-07  0.00000E+00  9.000E+00
      21     1     3     3   511   502  9.880050968E+00  3.293121365E+00  6.996566592E+00  1.254639389E+01  1.884864366E-07  0.00000E+00  9.000E+00
#rwgt            1          17   43.804491866441850                1     3731405           0      100111           0
<weights>
0.13818E+02
</weights>
</event>
<event>
     15  10001  1.35503E+01  6.14986E+00 -1.00000E+00  7.14189E-01
      21    -1     0     0   511   501  0.000000000E+00  0.000000000E+00  7.090743300E+02  7.090743300E+02  0.000000000E+00  0.00000E+00  9.000E+00
      21    -1     0     0   501   502  0.000000000E+00  0.000000000E+00 -5.451290394E+01  5.451290394E+01  0.000000000E+00  0.00000E+00  9.000E+00
      -6     2     1     2     0   502 -6.109587160E+01 -4.090783615E+01  2.878987682E+02  3.437644660E+02  1.728645445E+02  0.00000E+00  9.000E+00
       6     2     1     2   507     0  5.936500238E+01  4.680909508E+01  3.101640363E+02  3.629904268E+02  1.727571291E+02  0.00000E+00  9.000E+00
     -24     2     3     3     0     0 -1.561587986E+01  1.631883831E+01  5.737915434E+01  1.018595505E+02  8.107305647E+01  0.00000E+00  9.000E+00
      24     2     4     4     0     0 -1.521227129E+00  6.574466484E+01  1.020326725E+02  1.450305178E+02  7.936315112E+01  0.00000E+00  9.000E+00
     -11     1     6     6     0     0 -3.471055471E+00  5.761421047E+00  8.123666907E+01  8.151465267E+01  0.000000000E+00  0.00000E+00  9.000E+00
      12     1     6     6     0     0  1.949828341E+00  5.998324379E+01  2.079600341E+01  6.351586514E+01  2.556754421E-06  0.00000E+00  9.000E+00
      13     1     5     5     0     0 -1.582822633E+01 -2.175793533E+01  5.782639156E+01  6.377955832E+01  0.000000000E+00  0.00000E+00  9.000E+00
     -14     1     5     5     0     0  2.123464750E-01  3.807677364E+01 -4.472372233E-01  3.807999217E+01  2.529765620E-06  0.00000E+00  9.000E+00
       5     1     4     4   512     0  4.564747517E+01 -1.131659077E+01  1.631745480E+02  1.698830564E+02  4.750000000E+00  0.00000E+00  9.000E+00
      -5     1     3     3     0   513 -4.198791930E+01 -5.414025189E+01  2.156078985E+02  2.262818610E+02  4.750000000E+00  0.00000E+00  9.000E+00
      21     1     1     2   511   507  1.730869216E+00 -5.901258929E+00  5.649862151E+01  5.683234113E+01  6.743495762E-07  0.00000E+00  9.000E+00
      21     1     4     4   507   512  1.523875435E+01 -7.618978990E+00  4.495681581E+01  4.807685267E+01  1.168007728E-06  0.00000E+00  9.000E+00
      21     1     3     3   513   502 -3.492072439E+00 -3.086422570E+00  1.491171537E+01  1.562305443E+01  0.000000000E+00  0.00000E+00  9.000E+00
#rwgt            1          17   18.115165287930946                1     3736971           0       11011           0
<weights>
0.14352E+02
</weights>
</event>
<event>
     13  10001  1.35503E+01  1.70420E+02 -1.00000E+00  1.14238E-01
      21    -1     0     0   502   501  0.000000000E+00  0.000000000E+00  5.714374229E+01  5.714374229E+01  0.000000000E+00  0.00000E+00  9.000E+00
       2    -1     0     0   507     0  0.000000000E+00  0.000000000E+00 -2.442575385E+03  2.442575385E+03  0.000000000E+00  0.00000E+00  9.000E+00
      -6     2     1     2     0   501 -6.421265617E+01 -1.266590139E+02 -5.332647913E+02  5.781478257E+02  1.723885139E+02  0.00000E+00  9.000E+00
       6     2     1     2   507     0 -3.119777176E+00 -2.989551819E+01 -2.675626372E+02  3.278293231E+02  1.870262689E+02  0.00000E+00  9.000E+00
     -24     2     3     3     0     0 -5.960354177E+01 -3.641354191E+00 -2.589709848E+02  2.774582128E+02  7.969471268E+01  0.00000E+00  9.000E+00
      24     2     4     4     0     0  5.067605982E+01 -6.877608452E+01 -1.237555597E+02  1.693719833E+02  7.793084961E+01  0.00000E+00  9.000E+00
     -11     1     6     6     0     0  3.409402347E+00 -3.275597732E+01 -9.538452869E-01  3.294674332E+01  0.000000000E+00  0.00000E+00  9.000E+00
      12     1     6     6     0     0  4.726665748E+01 -3.602010720E+01 -1.228017145E+02  1.364252400E+02  1.348699152E-06  0.00000E+00  9.000E+00
      13     1     5     5     0     0  1.346401203E+01  4.706559187E+00 -8.933841386E+00  1.682987942E+01  0.000000000E+00  0.00000E+00  9.000E+00
     -14     1     5     5     0     0 -7.306755380E+01 -8.347913378E+00 -2.500371434E+02  2.606283334E+02  5.394796609E-06  0.00000E+00  9.000E+00
       5     1     4     4   507     0 -5.379583700E+01  3.888056633E+01 -1.438070775E+02  1.584573398E+02  4.750000000E+00  0.00000E+00  9.000E+00
      -5     1     3     3     0   501 -4.609114401E+00 -1.230176597E+02 -2.742938065E+02  3.006896129E+02  4.750000000E+00  0.00000E+00  9.000E+00
       2     1     1     2   502     0  6.733243335E+01  1.565545321E+02 -1.584604215E+03  1.593741979E+03  0.000000000E+00  0.00000E+00  9.000E+00
#rwgt            2          94  0.97890450862299661                1     3764479           0           1           0
<weights>
0.13550E+02
</weights>
</event>
<event>
     15  10001  1.35503E+01  2.06116E+01 -1.00000E+00  6.49043E-01
       1    -1     0     0   511     0  0.000000000E+00  0.000000000E+00  2.987862132E+02  2.987862132E+02  0.000000000E+00  0.00000E+00  9.000E+00
      -1    -1     0     0     0   502  0.000000000E+00  0.000000000E+00 -3.053070247E+02  3.053070247E+02  0.000000000E+00  0.00000E+00  9.000E+00
      -6     2     1     2     0   502  1.318490500E+02 -1.407675393E+02  1.238862182E+02  2.874584586E+02  1.734499877E+02  0.00000E+00  9.000E+00
       6     2     1     2   507     0 -1.211376883E+02  1.583773590E+02 -1.340564699E+02  2.957025688E+02  1.723692105E+02  0.00000E+00  9.000E+00
     -24     2     3     3     0     0  1.440782530E+02 -8.660337755E+01  4.741675810E+01  1.926793966E+02  8.135301431E+01  0.00000E+00  9.000E+00
      24     2     4     4     0     0 -9.940993556E+01  1.010170892E+02 -1.590018720E+02  2.288507089E+02  8.369148134E+01  0.00000E+00  9.000E+00
     -11     1     6     6     0     0 -9.839045981E+01  4.794155234E+01 -8.943183093E+01  1.413404663E+02  0.000000000E+00  0.00000E+00  9.000E+00
      12     1     6     6     0     0 -1.019475756E+00  5.307553691E+01 -6.957004103E+01  8.751024258E+01  9.536743164E-07  0.00000E+00  9.000E+00
      13     1     5     5     0     0  3.795649573E+01 -6.686927271E+01  3.340149286E+01  8.383230240E+01  0.000000000E+00  0.00000E+00  9.000E+00
     -14     1     5     5     0     0  1.061217572E+02 -1.973410485E+01  1.401526524E+01  1.088470942E+02  3.873843386E-06  0.00000E+00  9.000E+00
       5     1     4     4   513     0 -2.228042757E+01  5.693295105E+01  2.459207802E+01  6.606898796E+01  4.750000000E+00  0.00000E+00  9.000E+00
      -5     1     3     3     0   512 -1.264546463E+01 -5.124497689E+01  7.328591519E+01  9.043972190E+01  4.750000000E+00  0.00000E+00  9.000E+00
      21     1     1     2   511   507 -1.071136170E+01 -1.760981969E+01  3.649440185E+00  2.093221041E+01  6.873942968E-07  0.00000E+00  9.000E+00
      21     1     4     4   507   513  5.526748287E-01  4.273187293E-01  3.533240188E-01  7.828720361E-01  3.762358777E-08  0.00000E+00  9.000E+00
      21     1     3     3   512   502  4.162616837E-01 -2.919184901E+00  3.183544919E+00  4.339340103E+00  5.960464478E-08  0.00000E+00  9.000E+00
#rwgt            1           4  0.31712068485947437                1     3764629           0       11011           0
<weights>
0.12878E+02
</weights>
</event>
<event>
     15  10001  1.35503E+01  1.37408E+01 -1.00000E+00  5.43877E-01
      21    -1     0     0   507   512  0.000000000E+00  0.000000000E+00  2.647986852E+02  2.647986852E+02  0.000000000E+00  0.00000E+00  9.000E+00
      21    -1     0     0   501   502  0.000000000E+00  0.000000000E+00 -3.680525772E+02  3.680525772E+02  0.000000000E+00  0.00000E+00  9.000E+00
      -6     2     1     2     0   502 -1.676759888E+02 -1.810790706E+01 -1.894462268E+02  3.085316295E+02  1.756666162E+02  0.00000E+00  9.000E+00
       6     2     1     2   507     0  1.555986696E+02  1.155451139E+01  1.380609757E+02  2.706617860E+02  1.727788085E+02  0.00000E+00  9.000E+00
     -24     2     3     3     0     0 -1.302626875E+01  1.713565596E+01 -5.663981709E+01  1.014382699E+02  8.135317656E+01  0.00000E+00  9.000E+00
      24     2     4     4     0     0  1.290061961E+02  6.156848140E+01  5.949665289E+01  1.736076978E+02  7.852709410E+01  0.00000E+00  9.000E+00
     -11     1     6     6     0     0  8.876509861E+01  3.422497383E+01  7.649255014E+01  1.220725268E+02  0.000000000E+00  0.00000E+00  9.000E+00
      12     1     6     6     0     0  4.024109749E+01  2.734350757E+01 -1.699589725E+01  5.153517107E+01  6.743495762E-07  0.00000E+00  9.000E+00
      13     1     5     5     0     0 -3.394929073E+01  9.024644567E+00  5.330217134E+00  3.553040620E+01  0.000000000E+00  0.00000E+00  9.000E+00
     -14     1     5     5     0     0  2.092302198E+01  8.111011393E+00 -6.197003423E+01  6.590786369E+01  1.348699152E-06  0.00000E+00  9.000E+00
       5     1     4     4   513     0  2.420620097E+01 -4.723739809E+01  7.267450249E+01  9.011913092E+01  4.750000000E+00  0.00000E+00  9.000E+00
      -5     1     3     3     0   511 -1.526869544E+02 -3.387849358E+01 -1.302102713E+02  2.035640823E+02  4.750000000E+00  0.00000E+00  9.000E+00
      21     1     1     2   501   512  1.207731921E+01  6.553395669E+00 -5.186864087E+01  5.365784695E+01  1.168007728E-06  0.00000E+00  9.000E+00
      21     1     3     3   511   502 -1.962765664E+00 -1.365069432E+00 -2.596138372E+00  3.529277270E+00  6.664001875E-08  0.00000E+00  9.000E+00
      21     1     4     4   507   513  2.386272495E+00 -2.776571917E+00  5.889820331E+00  6.934957214E+00  1.192092896E-07  0.00000E+00  9.000E+00
#rwgt            1          17   14.128655566089320                1     3767304           0       11110           0
<weights>
0.14259E+02
</weights>
</event>
<event>
     15  10001  1.35503E+01  3.01351E+01 -1.00000E+00  2.18966E-01
      21    -1     0     0   511   501  0.000000000E+00  0.000000000E+00  1.980507965E+02  1.980507965E+02  0.000000000E+00  0.00000E+00  9.000E+00
      21    -1     0     0   507   502  0.000000000E+00  0.000000000E+00 -3.324553784E+02  3.324553784E+02  0.000000000E+00  0.00000E+00  9.000E+00
      -6     2     1     2     0   501 -2.570495185E+01 -2.287096895E+01  8.699889949E+01  1.960275159E+02  1.722618724E+02  0.00000E+00  9.000E+00
       6     2     1     2   507     0  6.163777740E-01  3.956498602E+01 -8.956106334E+01  1.992360993E+02  1.735167749E+02  0.00000E+00  9.000E+00
     -24     2     3     3     0     0  3.586363925E+01  2.972715225E+01  5.988740921E+01  1.100895014E+02  7.977024723E+01  0.00000E+00  9.000E+00
      24     2     4     4     0     0  4.731148226E+01 -2.223040376E+01 -1.181391290E+01  8.924942561E+01  7.136752924E+01  0.00000E+00  9.000E+00
     -11     1     6     6     0     0  2.462902396E+01 -3.442200193E+01 -3.475106747E+01  5.476403682E+01  0.000000000E+00  0.00000E+00  9.000E+00
      12     1     6     6     0     0  2.268245830E+01  1.219159818E+01  2.293715457E+01  3.448538879E+01  1.118282261E-06  0.00000E+00  9.000E+00
      13     1     5     5     0     0  1.646491733E+01 -3.877596062E+00  6.831911261E+01  7.038203181E+01  0.000000000E+00  0.00000E+00  9.000E+00
     -14     1     5     5     0     0  1.939872192E+01  3.360474831E+01 -8.431703407E+00  3.970746962E+01  3.371747881E-07  0.00000E+00  9.000E+00
       5     1     4     4   514     0 -3.715042637E+01  4.616193024E+01 -5.798996017E+01  8.304502371E+01  4.750000000E+00  0.00000E+00  9.000E+00
      -5     1     3     3     0   512 -3.801757322E+01 -3.333425338E+01  2.071457774E+01  5.484673694E+01  4.750000000E+00  0.00000E+00  9.000E+00
      21     1     1     2   511   502  2.508857407E+01 -1.669401707E+01 -1.318424180E+02  1.352425597E+02  3.814697266E-06  0.00000E+00  9.000E+00
      21     1     3     3   512   501 -2.355101787E+01 -1.926386782E+01  6.396912539E+00  3.109127750E+01  8.960542904E-07  0.00000E+00  9.000E+00
      21     1     4     4   507   514 -9.544678111E+00  1.563345953E+01 -1.975719027E+01  2.694165000E+01  6.743495762E-07  0.00000E+00  9.000E+00
#rwgt            1          17   23.473850128029984                1     3783631           0       11110           0
<weights>
0.14040E+02
</weights>
</event>
<event>
     14  10001  1.35503E+01  1.36354E+01 -1.00000E+00  7.51613E-01
      21    -1     0     0   502   501  0.000000000E+00  0.000000000E+00  1.082328954E+02  1.082328954E+02  0.000000000E+00  0.00000E+00  9.000E+00
      21    -1     0     0   507   512  0.000000000E+00  0.000000000E+00 -4.296157316E+02  4.296157316E+02  0.000000000E+00  0.00000E+00  9.000E+00
      -6     2     1     2     0   501 -3.060676273E+01 -5.292739179E+01 -2.606084194E+02  3.184089391E+02  1.724222187E+02  0.00000E+00  9.000E+00
       6     2     1     2   507     0  3.587164740E+01  4.034938580E+01 -6.332424485E+01  2.055678867E+02  1.879716682E+02  0.00000E+00  9.000E+00
     -24     2     3     3     0     0 -4.261688672E+01 -5.412852191E+01 -4.580903971E+01  1.032182752E+02  6.172072829E+01  0.00000E+00  9.000E+00
      24     2     4     4     0     0  1.659288819E+01 -2.971096788E+01  2.309796313E+01  9.088367447E+01  8.104480757E+01  0.00000E+00  9.000E+00
     -11     1     6     6     0     0  2.605996382E+01 -8.467573672E+00  4.895752754E+01  5.610401965E+01  0.000000000E+00  0.00000E+00  9.000E+00
      12     1     6     6     0     0 -9.467075627E+00 -2.124339420E+01 -2.585956441E+01  3.477965482E+01  4.768371582E-07  0.00000E+00  9.000E+00
      13     1     5     5     0     0  8.673830970E+00 -1.971393938E+01  6.264104224E+00  2.243019731E+01  0.000000000E+00  0.00000E+00  9.000E+00
     -14     1     5     5     0     0 -5.129071769E+01 -3.441458254E+01 -5.207314394E+01  8.078807791E+01  1.907348633E-06  0.00000E+00  9.000E+00
       5     1     4     4   511     0  2.049619190E+01  6.694320333E+01 -8.644093598E+01  1.113377037E+02  4.750000000E+00  0.00000E+00  9.000E+00
      -5     1     3     3     0   501  1.201012399E+01  1.201130121E+00 -2.147993797E+02  2.151906639E+02  4.750000000E+00  0.00000E+00  9.000E+00
      21     1     1     2   502   512 -5.264884667E+00  1.257800600E+01  2.549828114E+00  1.387180121E+01  2.475566823E-07  0.00000E+00  9.000E+00
      21     1     4     4   507   511 -1.217432691E+00  3.117150341E+00  1.872799655E-02  3.346508530E+00  5.699502030E-08  0.00000E+00  9.000E+00
#rwgt            1          17   26.813318556774455                1     3791524           0         110           0
<weights>
0.10213E+02
</weights>
</event>
<event>
     15  10001 -1.35503E+01  5.63278E+01 -1.00000E+00  3.29940E-01
      21    -1     0     0   502   511  0.000000000E+00  0.000000000E+00  5.232868784E+02  5.232868784E+02  0.000000000E+00  0.00000E+00  9.000E+00
      21    -1     0     0   507   502  0.000000000E+00  0.000000000E+00 -2.537828122E+02  2.537828122E+02  0.000000000E+00  0.00000E+00  9.000E+00
      -6     2     1     2     0   501  1.632611187E+02 -6.132560411E+01  6.892741456E+01  2.559647898E+02  1.742181464E+02  0.00000E+00  9.000E+00
       6     2     1     2   507     0 -2.112996799E+02  3.191271869E+01  3.018266881E+02  4.052412262E+02  1.656958822E+02  0.00000E+00  9.000E+00
     -24     2     3     3     0     0  1.824080102E+02 -5.875621509E+01  2.785925084E+01  2.100021125E+02  8.123899551E+01  0.00000E+00  9.000E+00
      24     2     4     4     0     0 -1.849356232E+02  5.669902343E+01  1.956808180E+02  2.871998952E+02  8.232152367E+01  0.00000E+00  9.000E+00
     -11     1     6     6     0     0 -1.182053987E+02  9.539066457E+00  1.571058872E+02  1.968394519E+02  0.000000000E+00  0.00000E+00  9.000E+00
      12     1     6     6     0     0 -6.673022459E+01  4.715995697E+01  3.857493086E+01  9.036044326E+01  1.846782373E-06  0.00000E+00  9.000E+00
      13     1     5     5     0     0  7.881469428E+01  1.564729081E+01  1.577710662E+01  8.188718359E+01  0.000000000E+00  0.00000E+00  9.000E+00
     -14     1     5     5     0     0  1.035933159E+02 -7.440350590E+01  1.208214421E+01  1.281149289E+02  2.681546659E-06  0.00000E+00  9.000E+00
       5     1     4     4   512     0 -6.300260663E+00 -2.480399649E+01  8.498124143E+01  8.887803677E+01  4.750000000E+00  0.00000E+00  9.000E+00
      -5     1     3     3     0   513 -1.711395772E+01 -3.413083313E+00  3.336931138E+01  3.795537022E+01  4.750000000E+00  0.00000E+00  9.000E+00
      21     1     1     2   501   511  4.803856118E+01  2.941288542E+01 -1.012500365E+02  1.158636746E+02  1.348699152E-06  0.00000E+00  9.000E+00
      21     1     4     4   507   512 -2.006379594E+01  1.769174878E-02  2.116462871E+01  2.916329420E+01  2.384185791E-07  0.00000E+00  9.000E+00
      21     1     3     3   513   501 -2.032933791E+00  8.436942937E-01  7.698852345E+00  8.007307119E+00  2.064765462E-07  0.00000E+00  9.000E+00
#rwgt            1          17  -29.135014155778912                1     3803952           0       11011           0
<weights>
-.16178E+02
</weights>
</event>
<event>
     15  10001  1.35503E+01  5.52958E+01 -1.00000E+00  3.40300E-01
      21    -1     0     0   512   501  0.000000000E+00  0.000000000E+00  1.065098657E+03  1.065098657E+03  0.000000000E+00  0.00000E+00  9.000E+00
      21    -1     0     0   507   502  0.000000000E+00  0.000000000E+00 -3.774140388E+02  3.774140388E+02  0.000000000E+00  0.00000E+00  9.000E+00
      -6     2     1     2     0   501 -5.162941751E+00  8.159158924E+01  9.845050142E+02  1.003211302E+03  1.746394863E+02  0.00000E+00  9.000E+00
       6     2     1     2   507     0 -2.091751720E+01 -3.283263039E+01 -4.872455546E+01  1.851180492E+02  1.742959715E+02  0.00000E+00  9.000E+00
     -24     2     3     3     0     0  5.381733626E+01  7.931188860E+01  7.930761092E+02  8.027488068E+02  7.905220132E+01  0.00000E+00  9.000E+00
      24     2     4     4     0     0  3.988365229E+00  4.124709163E+01 -5.666530366E+01  1.061797366E+02  7.966147253E+01  0.00000E+00  9.000E+00
     -11     1     6     6     0     0 -2.339390566E+01 -1.085418986E+00 -5.014390203E+01  5.534314652E+01  0.000000000E+00  0.00000E+00  9.000E+00
      12     1     6     6     0     0  2.738227089E+01  4.233251062E+01 -6.521401635E+00  5.083659011E+01  3.257054351E-06  0.00000E+00  9.000E+00
      13     1     5     5     0     0 -1.789128339E+01  2.248413179E+00  1.553859747E+02  1.564287522E+02  0.000000000E+00  0.00000E+00  9.000E+00
     -14     1     5     5     0     0  7.170861964E+01  7.706347542E+01  6.376901345E+02  6.463200546E+02  0.000000000E+00  0.00000E+00  9.000E+00
       5     1     4     4   514     0 -2.144940917E+01 -6.704457701E+01  8.589258999E+00  7.107313367E+01  4.750000000E+00  0.00000E+00  9.000E+00
      -5     1     3     3     0   511 -5.149147537E+01  6.448785614E-01  1.707114957E+02  1.783725460E+02  4.750000000E+00  0.00000E+00  9.000E+00
      21     1     1     2   512   502  2.608045895E+01 -4.875895886E+01 -2.480958407E+02  2.541833444E+02  7.629394531E-06  0.00000E+00  9.000E+00
      21     1     3     3   511   501 -7.488802644E+00  1.634822084E+00  2.071740930E+01  2.208994922E+01  4.768371582E-07  0.00000E+00  9.000E+00
      21     1     4     4   507   514 -3.456473259E+00 -7.035145013E+00 -6.485107982E-01  7.865178892E+00  1.510466258E-07  0.00000E+00  9.000E+00
#rwgt            1          17   11.412679344321781                1     3810363           0       11110           0
<weights>
0.20135E+02
</weights>
</event>
<event>
     13  10001  1.35503E+01  3.22313E+01 -1.00000E+00  1.50907E-01
      21    -1     0     0   507   501  0.000000000E+00  0.000000000E+00  2.110322518E+03  2.110322518E+03  0.000000000E+00  0.00000E+00  9.000E+00
       4    -1     0     0   501     0  0.000000000E+00  0.000000000E+00 -8.171045874E+01  8.171045874E+01  0.000000000E+00  0.00000E+00  9.000E+00
      -6     2     1     2     0   502 -1.610914193E+02  8.790514752E+01  1.199796326E+03  1.225943909E+03  1.724803846E+02  0.00000E+00  9.000E+00
       6     2     1     2   507     0  1.808980235E+02 -6.247773993E+01  8.737286095E+02  9.108077773E+02  1.718765870E+02  0.00000E+00  9.000E+00
     -24     2     3     3     0     0 -1.054732161E+02  9.223781083E+01  1.097254227E+03  1.109112401E+03  8.081502036E+01  0.00000E+00  9.000E+00
      24     2     4     4     0     0  1.993945702E+01 -3.684221016E+01  3.889139023E+02  3.993073341E+02  8.023336766E+01  0.00000E+00  9.000E+00
     -11     1     6     6     0     0  4.863083682E+01 -7.288057544E+00  2.002431671E+02  2.061926285E+02  0.000000000E+00  0.00000E+00  9.000E+00
      12     1     6     6     0     0 -2.869137980E+01 -2.955415262E+01  1.886707352E+02  1.931147056E+02  0.000000000E+00  0.00000E+00  9.000E+00
      13     1     5     5     0     0 -3.762872610E+01  4.784245935E-01  4.744162252E+02  4.759064032E+02  0.000000000E+00  0.00000E+00  9.000E+00
     -14     1     5     5     0     0 -6.784448999E+01  9.175938624E+01  6.228380017E+02  6.332059982E+02  1.078959322E-05  0.00000E+00  9.000E+00
       5     1     4     4   507     0  1.609585665E+02 -2.563552977E+01  4.848147072E+02  5.115004432E+02  4.750000000E+00  0.00000E+00  9.000E+00
      -5     1     3     3     0   502 -5.561820320E+01 -4.332663306E+00  1.025420990E+02  1.168315072E+02  4.750000000E+00  0.00000E+00  9.000E+00
       4     1     1     2   502     0 -1.980660421E+01 -2.542740760E+01 -4.491287639E+01  5.528129062E+01  0.000000000E+00  0.00000E+00  9.000E+00
#rwgt            2         102   4.4236593463331912E-002           1     3838696           0           1           0
<weights>
0.13550E+02
</weights>
</event>
<event>
     15  10001  1.35503E+01  8.43254E+00 -1.00000E+00  1.54467E-01
      21    -1     0     0   512   501  0.000000000E+00  0.000000000E+00  7.490809353E+02  7.490809353E+02  0.000000000E+00  0.00000E+00  9.000E+00
      21    -1     0     0   507   502  0.000000000E+00  0.000000000E+00 -6.684499305E+01  6.684499305E+01  0.000000000E+00  0.00000E+00  9.000E+00
      -6     2     1     2     0   501 -4.057849092E+01  7.625610626E+01  4.358358524E+02  4.767356564E+02  1.728073732E+02  0.00000E+00  9.000E+00
       6     2     1     2   507     0  4.562749811E+01 -6.950219515E+01  1.480797622E+02  2.405089939E+02  1.703071827E+02  0.00000E+00  9.000E+00
     -24     2     3     3     0     0  3.711495518E+00  9.414371948E+01  2.447179057E+02  2.744627973E+02  8.103183682E+01  0.00000E+00  9.000E+00
      24     2     4     4     0     0  1.617661017E-01  7.058910714E+00  2.426110918E+01  8.783130656E+01  8.411826558E+01  0.00000E+00  9.000E+00
     -11     1     6     6     0     0 -1.226600805E+01  1.815811520E+01  5.146170313E+01  5.593280782E+01  0.000000000E+00  0.00000E+00  9.000E+00
      12     1     6     6     0     0  1.242777415E+01 -1.109920448E+01 -2.720059396E+01  3.189849874E+01  2.023048729E-06  0.00000E+00  9.000E+00
      13     1     5     5     0     0 -1.165004097E+00  8.322701198E+01  2.483821008E+02  2.619575553E+02  0.000000000E+00  0.00000E+00  9.000E+00
     -14     1     5     5     0     0  4.876499615E+00  1.091670750E+01 -3.664195101E+00  1.250524197E+01  1.268613139E-06  0.00000E+00  9.000E+00
       5     1     4     4   513     0  4.028599035E+01 -7.045186773E+01  1.117115505E+02  1.381609920E+02  4.750000000E+00  0.00000E+00  9.000E+00
      -5     1     3     3     0   511 -2.223291791E+01 -3.185913504E+01  9.695022678E+01  1.045524562E+02  4.750000000E+00  0.00000E+00  9.000E+00
      21     1     3     3   511   501 -2.205706853E+01  1.397152182E+01  9.416771987E+01  9.772040298E+01  1.907348633E-06  0.00000E+00  9.000E+00
      21     1     1     2   512   502 -5.049007189E+00 -6.753911108E+00  9.832032762E+01  9.868127792E+01  0.000000000E+00  0.00000E+00  9.000E+00
      21     1     4     4   507   513  5.179741658E+00 -6.109238140E+00  1.210710255E+01  1.451669544E+01  2.384185791E-07  0.00000E+00  9.000E+00
#rwgt            1          17   19.124415857214945                1     3838894           0      110110           0
<weights>
0.15059E+02
</weights>
</event>
<event>
     15  10001  1.35503E+01  3.82380E+01 -1.00000E+00  1.93741E-01
      21    -1     0     0   502   512  0.000000000E+00  0.000000000E+00  8.166269697E+02  8.166269697E+02  0.000000000E+00  0.00000E+00  9.000E+00
      21    -1     0     0   507   502  0.000000000E+00  0.000000000E+00 -1.660528459E+02  1.660528459E+02  0.000000000E+00  0.00000E+00  9.000E+00
      -6     2     1     2     0   501  1.022590111E+02  1.300680740E+02  4.426031514E+01  2.444372493E+02  1.744017894E+02  0.00000E+00  9.000E+00
       6     2     1     2   507     0 -1.253505437E+02 -1.605463267E+02  6.362540788E+02  6.896775322E+02  1.713124740E+02  0.00000E+00  9.000E+00
     -24     2     3     3     0     0  5.580403357E+01  1.541756108E+02  3.467112636E+01  1.849874604E+02  7.832026797E+01  0.00000E+00  9.000E+00
      24     2     4     4     0     0 -1.145224181E+02 -1.256777258E+02  6.135172128E+02  6.418969388E+02  8.196361761E+01  0.00000E+00  9.000E+00
     -11     1     6     6     0     0 -1.085041473E+02 -6.268988459E+01  3.947187702E+02  4.141329245E+02  0.000000000E+00  0.00000E+00  9.000E+00
      12     1     6     6     0     0 -6.018270861E+00 -6.298784117E+01  2.187984426E+02  2.277640143E+02  2.697398305E-06  0.00000E+00  9.000E+00
      13     1     5     5     0     0  5.206806732E+01  1.335345647E+02  5.709634696E+01  1.542807714E+02  0.000000000E+00  0.00000E+00  9.000E+00
     -14     1     5     5     0     0  3.735966256E+00  2.064104611E+01 -2.242522060E+01  3.070668896E+01  2.236564522E-06  0.00000E+00  9.000E+00
       5     1     4     4   514     0 -1.051941778E+01 -3.718644001E+01  1.888526794E+01  4.327476535E+01  4.750000000E+00  0.00000E+00  9.000E+00
      -5     1     3     3     0   511  3.894346690E+01 -2.541334694E+01 -5.706635447E-01  4.674740606E+01  4.750000000E+00  0.00000E+00  9.000E+00
      21     1     1     2   501   512  2.309153264E+01  3.047825267E+01 -2.994027019E+01  4.856503418E+01  2.654916936E-06  0.00000E+00  9.000E+00
      21     1     3     3   511   501  7.511510590E+00  1.305810189E+00  1.015985233E+01  1.270238288E+01  2.665600750E-07  0.00000E+00  9.000E+00
      21     1     4     4   507   514 -3.087077775E-01  2.317839093E+00  3.851598109E+00  4.505828065E+00  1.115100797E-07  0.00000E+00  9.000E+00
#rwgt            1          17   9.5265437340853936                1     3845600           0       11110           0
<weights>
0.15524E+02
</weights>
</event>
<event>
     15  10001 -1.35503E+01  3.22112E+00 -1.00000E+00  1.59198E-01
      21    -1     0     0   507   513  0.000000000E+00  0.000000000E+00  2.692040364E+02  2.692040364E+02  0.000000000E+00  0.00000E+00  9.000E+00
      21    -1     0     0   501   502  0.000000000E+00  0.000000000E+00 -1.930367343E+02  1.930367343E+02  0.000000000E+00  0.00000E+00  9.000E+00
      -6     2     1     2     0   502 -2.934091932E+01 -2.082455301E+01 -1.079505426E+02  2.054722547E+02  1.710876274E+02  0.00000E+00  9.000E+00
       6     2     1     2   507     0  2.839654932E+01  2.390412296E+01  1.781086102E+02  2.499504162E+02  1.713906720E+02  0.00000E+00  9.000E+00
     -24     2     3     3     0     0  4.010607769E+01 -1.092339774E+00 -7.583286457E+01  1.194924899E+02  8.317536360E+01  0.00000E+00  9.000E+00
      24     2     4     4     0     0  5.478610710E+01 -4.231945336E+01  9.456612085E+01  1.389177528E+02  7.458510014E+01  0.00000E+00  9.000E+00
     -11     1     6     6     0     0 -1.163040639E+01  1.114654325E+01  1.082194225E+01  1.940685995E+01  0.000000000E+00  0.00000E+00  9.000E+00
      12     1     6     6     0     0  6.641651349E+01 -5.346599660E+01  8.374417860E+01  1.195108928E+02  4.672030912E-06  0.00000E+00  9.000E+00
      13     1     5     5     0     0 -8.159601383E+00 -2.125714829E+00 -7.040891754E+01  7.091201187E+01  0.000000000E+00  0.00000E+00  9.000E+00
     -14     1     5     5     0     0  4.826567907E+01  1.033375055E+00 -5.423947024E+00  4.858047799E+01  1.950629732E-06  0.00000E+00  9.000E+00
       5     1     4     4   512     0 -2.598116081E+01  5.910964102E+01  8.044874743E+01  1.032643881E+02  4.750000000E+00  0.00000E+00  9.000E+00
      -5     1     3     3     0   511 -4.460997077E+01 -8.194684321E+00 -2.546713438E+00  4.567549226E+01  4.750000000E+00  0.00000E+00  9.000E+00
      21     1     3     3   511   502 -2.483702623E+01 -1.153752891E+01 -2.957096456E+01  4.030427261E+01  1.215700987E-06  0.00000E+00  9.000E+00
      21     1     4     4   507   512 -4.083969733E-01  7.113935301E+00  3.093741918E+00  7.768275395E+00  1.576990671E-07  0.00000E+00  9.000E+00
      21     1     1     2   501   513  9.443700009E-01 -3.079569953E+00  6.009234497E+00  6.818099811E+00  8.429369702E-08  0.00000E+00  9.000E+00
#rwgt            1          17  -37.141021181305661                1     3850929           0      111001           0
<weights>
-.12394E+02
</weights>
</event>
<event>
     15  10001  1.35503E+01  4.93548E+00 -1.00000E+00  4.89775E-01
      21    -1     0     0   502   501  0.000000000E+00  0.000000000E+00  4.087316514E+02  4.087316514E+02  0.000000000E+00  0.00000E+00  9.000E+00
       3    -1     0     0   507     0  0.000000000E+00  0.000000000E+00 -3.664585459E+02  3.664585459E+02  0.000000000E+00  0.00000E+00  9.000E+00
      -6     2     1     2     0   501  1.189628641E+01  7.944756839E+01  2.717865331E+02  3.314482199E+02  1.718620527E+02  0.00000E+00  9.000E+00
       6     2     1     2   507     0 -1.230774983E+01 -8.436586496E+01  2.290138811E+01  1.912789144E+02  1.696881541E+02  0.00000E+00  9.000E+00
     -24     2     3     3     0     0  6.356067478E+01  5.218066634E+01  1.099579881E+02  1.589326468E+02  8.003777698E+01  0.00000E+00  9.000E+00
      24     2     4     4     0     0  4.535525776E+00 -1.194799557E+01  6.475551144E+01  1.039070349E+02  8.025004707E+01  0.00000E+00  9.000E+00
     -11     1     6     6     0     0  1.870685273E+01  2.814727810E+01  1.137851977E+01  3.566071109E+01  0.000000000E+00  0.00000E+00  9.000E+00
      12     1     6     6     0     0 -1.417132695E+01 -4.009527367E+01  5.337699166E+01  6.824632383E+01  1.168007728E-06  0.00000E+00  9.000E+00
      13     1     5     5     0     0  5.170397804E+01  4.772356467E+00  9.424166906E+01  1.075991121E+02  0.000000000E+00  0.00000E+00  9.000E+00
     -14     1     5     5     0     0  1.185669674E+01  4.740830987E+01  1.571631909E+01  5.133353473E+01  1.410503336E-06  0.00000E+00  9.000E+00
       5     1     4     4   511     0 -1.853139032E+01 -7.152561991E+01 -4.248230519E+01  8.536179172E+01  4.750000000E+00  0.00000E+00  9.000E+00
      -5     1     3     3     0   512 -5.214404337E+01  2.760239742E+01  1.603083604E+02  1.708865896E+02  4.750000000E+00  0.00000E+00  9.000E+00
       3     1     1     2   502     0  4.114634190E-01  4.918296574E+00 -2.524148158E+02  2.524630630E+02  0.000000000E+00  0.00000E+00  9.000E+00
      21     1     4     4   507   511  1.688114722E+00 -8.922494821E-01  6.281818658E-01  2.010087787E+00  6.452392070E-08  0.00000E+00  9.000E+00
      21     1     3     3   512   501  4.796550025E-01 -3.354953683E-01  1.520184626E+00  1.628983536E+00  4.712160915E-08  0.00000E+00  9.000E+00
#rwgt            1          17   25.596871975865593                1     3855253           0       11011           0
<weights>
0.11748E+02
</weights>
</event>
<event>
     15  10001  1.35503E+01  6.36574E+01 -1.00000E+00  3.17974E-01
      -1    -1     0     0     0   501  0.000000000E+00  0.000000000E+00  6.775039763E+02  6.775039763E+02  0.000000000E+00  0.00000E+00  9.000E+00
      21    -1     0     0   501   502  0.000000000E+00  0.000000000E+00 -3.526798226E+02  3.526798226E+02  0.000000000E+00  0.00000E+00  9.000E+00
      -6     2     1     2     0   502  8.561993736E+01  9.821317061E+01 -2.595461276E+02  3.379977990E+02  1.729211359E+02  0.00000E+00  9.000E+00
       6     2     1     2   507     0 -3.891556577E+01 -5.495851784E+01  1.127421333E+02  2.162812054E+02  1.718485126E+02  0.00000E+00  9.000E+00
     -24     2     3     3     0     0  2.779878279E+01  7.650956557E+01 -2.503197739E+02  2.751709506E+02  8.020334729E+01  0.00000E+00  9.000E+00
      24     2     4     4     0     0 -1.188167460E+01 -8.943160453E+01  3.299358498E+01  1.250264115E+02  8.002400162E+01  0.00000E+00  9.000E+00
     -11     1     6     6     0     0 -4.355107942E+01 -6.994506552E+01  3.013150078E+01  8.773206967E+01  0.000000000E+00  0.00000E+00  9.000E+00
      12     1     6     6     0     0  3.166940482E+01 -1.948653901E+01  2.862084199E+00  3.729434180E+01  6.963802246E-07  0.00000E+00  9.000E+00
      13     1     5     5     0     0 -3.082731915E+00 -2.653549955E+00  4.788617946E+00  6.282947179E+00  0.000000000E+00  0.00000E+00  9.000E+00
     -14     1     5     5     0     0  3.088151470E+01  7.916311553E+01 -2.551083918E+02  2.688880034E+02  7.629394531E-06  0.00000E+00  9.000E+00
       5     1     4     4   511     0 -2.704233040E+01  3.348143609E+01  7.709909302E+01  8.842582677E+01  4.750000000E+00  0.00000E+00  9.000E+00
      -5     1     3     3     0   512  4.387632650E+01  1.696688143E+01 -5.251659251E+00  4.757257106E+01  4.750000000E+00  0.00000E+00  9.000E+00
      -1     1     1     2     0   507 -4.670437159E+01 -4.325465277E+01  4.716281480E+02  4.759047944E+02  0.000000000E+00  0.00000E+00  9.000E+00
      21     1     3     3   512   502  1.394482807E+01  4.736723599E+00 -3.974694446E+00  1.525427731E+01  5.975347059E-07  0.00000E+00  9.000E+00
      21     1     4     4   507   511  8.439239444E-03  9.916506009E-01  2.649455277E+00  2.828967197E+00  2.980232239E-08  0.00000E+00  9.000E+00
#rwgt            1          17   28.819447937177831                1     3863217           0       11110           0
<weights>
0.10212E+02
</weights>
</event>
<event>
     14  10001  1.35503E+01  4.38215E+00 -1.00000E+00  2.68947E-01
       1    -1     0     0   511     0  0.000000000E+00  0.000000000E+00  2.417554642E+02  2.417554642E+02  0.000000000E+00  0.00000E+00  9.000E+00
      -1    -1     0     0     0   502  0.000000000E+00  0.000000000E+00 -1.616233740E+02  1.616233740E+02  0.000000000E+00  0.00000E+00  9.000E+00
      -6     2     1     2     0   502  4.774318468E+01  1.540835382E+01  7.246869346E+01  1.935487971E+02  1.723153977E+02  0.00000E+00  9.000E+00
       6     2     1     2   507     0 -4.917891501E+01 -1.954863298E+01  3.353971083E+01  1.835852919E+02  1.725628363E+02  0.00000E+00  9.000E+00
     -24     2     3     3     0     0  6.306653471E+01 -3.417112304E+00  1.083758749E+02  1.489171018E+02  8.026150076E+01  0.00000E+00  9.000E+00
      24     2     4     4     0     0 -6.103537542E+01  3.079967305E+01  6.601869275E+01  1.223237677E+02  7.701103458E+01  0.00000E+00  9.000E+00
     -11     1     6     6     0     0 -3.274434162E+01  2.363292156E+01 -9.394457942E+00  4.146037541E+01  0.000000000E+00  0.00000E+00  9.000E+00
      12     1     6     6     0     0 -2.829103381E+01  7.166751489E+00  7.541315069E+01  8.086339232E+01  9.536743164E-07  0.00000E+00  9.000E+00
      13     1     5     5     0     0  5.071055723E+01  3.105550707E+01  4.098848080E+01  7.222230052E+01  0.000000000E+00  0.00000E+00  9.000E+00
     -14     1     5     5     0     0  1.235597748E+01 -3.447261938E+01  6.738739410E+01  7.669480132E+01  1.907348633E-06  0.00000E+00  9.000E+00
       5     1     4     4   507     0  1.185646041E+01 -5.034830602E+01 -3.247898192E+01  6.126152414E+01  4.750000000E+00  0.00000E+00  9.000E+00
      -5     1     3     3     0   513 -1.488445333E+01  1.342766693E+01 -3.155215416E+01  3.768222555E+01  4.750000000E+00  0.00000E+00  9.000E+00
      21     1     1     2   511   507  1.435730333E+00  4.140279153E+00 -2.587631407E+01  2.624474924E+01  4.768371582E-07  0.00000E+00  9.000E+00
      21     1     3     3   513   502 -4.388966925E-01  5.397799200E+00 -4.355027285E+00  6.949469704E+00  1.460009660E-07  0.00000E+00  9.000E+00
#rwgt            1           4   1.6941762699046117                1     3876902           0         111           0
<weights>
0.93839E+01
</weights>
</event>
<event>
     15  10001  1.35503E+01  1.07814E+01 -1.00000E+00  6.28480E-01
      -1    -1     0     0     0   512  0.000000000E+00  0.000000000E+00  1.018430238E+02  1.018430238E+02  0.000000000E+00  0.00000E+00  9.000E+00
       1    -1     0     0   501     0  0.000000000E+00  0.000000000E+00 -1.070263489E+03  1.070263489E+03  0.000000000E+00  0.00000E+00  9.000E+00
      -6     2     1     2     0   507  7.078059392E+01  8.376702819E+00 -1.260403846E+02  2.253018947E+02  1.726114237E+02  0.00000E+00  9.000E+00
       6     2     1     2   507     0 -6.008450762E+01 -9.729972241E+00 -1.072125330E+02  2.115580196E+02  1.719227967E+02  0.00000E+00  9.000E+00
     -24     2     3     3     0     0  4.352023360E+00 -2.597848536E+01 -1.238789747E+02  1.501968891E+02  8.074207898E+01  0.00000E+00  9.000E+00
      24     2     4     4     0     0  1.717360809E+01  2.597137146E+01 -2.291438107E+01  8.926198486E+01  8.045612550E+01  0.00000E+00  9.000E+00
     -11     1     6     6     0     0 -1.578165097E+00 -2.852713972E+01 -5.961887189E+00  2.918616803E+01  0.000000000E+00  0.00000E+00  9.000E+00
      12     1     6     6     0     0  1.875177319E+01  5.449851118E+01 -1.695249388E+01  6.007581682E+01  2.274368290E-06  0.00000E+00  9.000E+00
      13     1     5     5     0     0  2.835063717E+01  1.742762960E+01 -6.642973015E+01  7.429932671E+01  0.000000000E+00  0.00000E+00  9.000E+00
     -14     1     5     5     0     0 -2.399861381E+01 -4.340611496E+01 -5.744924457E+01  7.589756243E+01  9.536743164E-07  0.00000E+00  9.000E+00
       5     1     4     4   511     0 -7.323249193E+01 -3.631477202E+01 -7.095837456E+01  1.083485762E+02  4.750000000E+00  0.00000E+00  9.000E+00
      -5     1     3     3     0   513  6.361961574E+01  3.188643463E+01 -1.752558451E+00  7.134307381E+01  4.750000000E+00  0.00000E+00  9.000E+00
      21     1     1     2   501   512 -1.069608630E+01  1.353269422E+00 -7.351675473E+02  7.352465982E+02  1.525878906E-05  0.00000E+00  9.000E+00
      21     1     4     4   507   511 -4.025623783E+00  6.134283253E-01 -1.333977735E+01  1.394745858E+01  2.384185791E-07  0.00000E+00  9.000E+00
      21     1     3     3   513   507  2.808954820E+00  2.468753552E+00 -4.088514387E-01  3.761931789E+00  1.066760798E-07  0.00000E+00  9.000E+00
#rwgt            1           2   1.4373388751173355                1     3883455           0       11011           0
<weights>
0.12017E+02
</weights>
</event>
<event>
     15  10001 -1.35503E+01  1.21637E+01 -1.00000E+00  3.14482E-01
      21    -1     0     0   502   512  0.000000000E+00  0.000000000E+00  2.743065428E+02  2.743065428E+02  0.000000000E+00  0.00000E+00  9.000E+00
      21    -1     0     0   507   502  0.000000000E+00  0.000000000E+00 -1.437706057E+02  1.437706057E+02  0.000000000E+00  0.00000E+00  9.000E+00
      -6     2     1     2     0   501 -3.272201107E+01 -1.083649423E-02  1.424460287E+02  2.262222673E+02  1.726699541E+02  0.00000E+00  9.000E+00
       6     2     1     2   507     0  3.993709698E+01  9.803612811E+00 -4.805354340E+00  1.777682484E+02  1.728796580E+02  0.00000E+00  9.000E+00
     -24     2     3     3     0     0 -7.841410260E+01 -2.083803711E+01  6.070684509E+01  1.292166287E+02  8.017868056E+01  0.00000E+00  9.000E+00
      24     2     4     4     0     0  1.081167317E+01  5.507654111E+01 -4.135215854E+01  1.058925451E+02  7.970515942E+01  0.00000E+00  9.000E+00
     -11     1     6     6     0     0  3.078441727E+01 -7.567216587E+00 -1.474750596E+01  3.496329569E+01  0.000000000E+00  0.00000E+00  9.000E+00
      12     1     6     6     0     0 -1.997274410E+01  6.264375770E+01 -2.660465258E+01  7.092924943E+01  1.651812370E-06  0.00000E+00  9.000E+00
      13     1     5     5     0     0 -2.735412872E+01 -1.193906150E+01 -1.809116003E+01  3.490099739E+01  0.000000000E+00  0.00000E+00  9.000E+00
     -14     1     5     5     0     0 -5.105997387E+01 -8.898975605E+00  7.879800512E+01  9.431563131E+01  1.348699152E-06  0.00000E+00  9.000E+00
       5     1     4     4   511     0  3.409752151E+01 -2.959188242E+01  2.562702904E+01  5.213086989E+01  4.750000000E+00  0.00000E+00  9.000E+00
      -5     1     3     3     0   514  4.615672665E+01  2.017455226E+01  7.658346986E+01  9.178805112E+01  4.750000000E+00  0.00000E+00  9.000E+00
      21     1     4     4   507   511 -4.972097697E+00 -1.568104588E+01  1.091977515E+01  1.974483337E+01  4.460403188E-07  0.00000E+00  9.000E+00
      21     1     1     2   501   512 -7.215085905E+00 -9.792776317E+00 -7.104737189E+00  1.408663278E+01  2.064765462E-07  0.00000E+00  9.000E+00
      21     1     3     3   514   501 -4.646351244E-01  6.526483558E-01  5.155713714E+00  5.217587525E+00  0.000000000E+00  0.00000E+00  9.000E+00
#rwgt            1          17  -4.5640933499724294                1     3889255           0      100111           0
<weights>
-.42643E+02
</weights>
</event>
<event>
     14  10001  1.35503E+01  3.80967E+01 -1.00000E+00  7.49920E-01
      21    -1     0     0   507   512  0.000000000E+00  0.000000000E+00  7.307584780E+02  7.307584780E+02  0.000000000E+00  0.00000E+00  9.000E+00
      21    -1     0     0   501   502  0.000000000E+00  0.000000000E+00 -1.120270758E+02  1.120270758E+02  0.000000000E+00  0.00000E+00  9.000E+00
      -6     2     1     2     0   502  6.036752974E+01 -5.121171938E+01  1.033871565E+02  2.143904507E+02  1.703158312E+02  0.00000E+00  9.000E+00
       6     2     1     2   507     0 -9.669473054E+01  3.973599344E+01  5.441311615E+02  5.806452934E+02  1.736128330E+02  0.00000E+00  9.000E+00
     -24     2     3     3     0     0  7.669545934E+01  7.371408875E+00  1.058913183E+02  1.533378706E+02  7.976841553E+01  0.00000E+00  9.000E+00
      24     2     4     4     0     0 -5.283622595E+01 -2.089426869E+01  1.490314756E+02  1.784627465E+02  8.006456100E+01  0.00000E+00  9.000E+00
     -11     1     6     6     0     0 -6.767871037E+00  2.696623645E+01  6.939314439E+01  7.475553808E+01  0.000000000E+00  0.00000E+00  9.000E+00
      12     1     6     6     0     0 -4.606835492E+01 -4.786050513E+01  7.963833118E+01  1.037072084E+02  1.907348633E-06  0.00000E+00  9.000E+00
      13     1     5     5     0     0  6.860702098E+01  3.656622984E+01  5.936188834E+01  9.781536832E+01  0.000000000E+00  0.00000E+00  9.000E+00
     -14     1     5     5     0     0  8.088438360E+00 -2.919482096E+01  4.652943000E+01  5.552250231E+01  6.743495762E-07  0.00000E+00  9.000E+00
       5     1     4     4   511     0 -3.096077257E+01  3.981436422E+01  2.667317224E+02  2.714997740E+02  4.750000000E+00  0.00000E+00  9.000E+00
      -5     1     3     3     0   502 -1.632792960E+01 -5.858312825E+01 -2.504161880E+00  6.105258002E+01  4.750000000E+00  0.00000E+00  9.000E+00
      21     1     1     2   501   512  3.632720080E+01  1.147572594E+01 -2.878691577E+01  4.774980967E+01  8.920806376E-07  0.00000E+00  9.000E+00
      21     1     4     4   507   511 -1.289773202E+01  2.081589791E+01  1.283679635E+02  1.306827730E+02  1.907348633E-06  0.00000E+00  9.000E+00
#rwgt            1          17   10.032035427637590                1     3893077           0         110           0
<weights>
0.97873E+01
</weights>
</event>
<event>
     15  10001  1.35503E+01  5.08133E+01 -1.00000E+00  1.80096E-01
       2    -1     0     0   507     0  0.000000000E+00  0.000000000E+00  1.544753955E+03  1.544753955E+03  0.000000000E+00  0.00000E+00  9.000E+00
      21    -1     0     0   501   502  0.000000000E+00  0.000000000E+00 -2.119895505E+02  2.119895505E+02  0.000000000E+00  0.00000E+00  9.000E+00
      -6     2     1     2     0   502  5.814303818E+01 -4.659605383E+01 -8.858646496E+01  2.111927961E+02  1.766437948E+02  0.00000E+00  9.000E+00
       6     2     1     2   507     0 -1.969844917E+01  1.336955871E+01  6.114679746E+01  1.843978510E+02  1.723277766E+02  0.00000E+00  9.000E+00
     -24     2     3     3     0     0 -1.684238258E+01 -2.492758036E+01 -9.782961978E+01  1.281853205E+02  7.717377652E+01  0.00000E+00  9.000E+00
      24     2     4     4     0     0 -4.975989211E+00 -5.770380428E+01  2.713923040E+01  1.026834251E+02  8.032968607E+01  0.00000E+00  9.000E+00
     -11     1     6     6     0     0 -2.566771652E+01 -6.094923959E+00 -1.726279706E+01  3.152751072E+01  0.000000000E+00  0.00000E+00  9.000E+00
      12     1     6     6     0     0  2.069172731E+01 -5.160888033E+01  4.440202746E+01  7.115591437E+01  8.259061849E-07  0.00000E+00  9.000E+00
      13     1     5     5     0     0 -3.175487793E+01  1.354678410E+01 -1.949596727E+01  3.964820767E+01  0.000000000E+00  0.00000E+00  9.000E+00
     -14     1     5     5     0     0  1.491249535E+01 -3.847436446E+01 -7.833365251E+01  8.853711286E+01  9.536743164E-07  0.00000E+00  9.000E+00
       5     1     4     4   511     0 -1.744769715E+01  6.701387679E+01  3.163906153E+01  7.628154779E+01  4.750000000E+00  0.00000E+00  9.000E+00
      -5     1     3     3     0   512  5.326915668E+01 -2.095533718E+01  1.705482747E+01  5.991793429E+01  4.750000000E+00  0.00000E+00  9.000E+00
       2     1     1     2   501     0 -3.844458900E+01  3.322649513E+01  1.360204072E+03  1.361152858E+03  0.000000000E+00  0.00000E+00  9.000E+00
      21     1     3     3   512   502  2.171626408E+01 -7.131362986E-01 -7.811672649E+00  2.308954132E+01  7.251217997E-07  0.00000E+00  9.000E+00
      21     1     4     4   507   511  2.725237185E+00  4.059486202E+00  2.368505522E+00  5.432878091E+00  7.300048300E-08  0.00000E+00  9.000E+00
#rwgt            1          17   17.160943349489624                1     3901381           0       11110           0
<weights>
0.15793E+02
</weights>
</event>
<event>
     15  10001  1.35503E+01  3.40412E+01 -1.00000E+00  2.22737E-01
       1    -1     0     0   507     0  0.000000000E+00  0.000000000E+00  8.304449353E+01  8.304449353E+01  0.000000000E+00  0.00000E+00  9.000E+00
      21    -1     0     0   511   502  0.000000000E+00  0.000000000E+00 -1.229756428E+03  1.229756428E+03  0.000000000E+00  0.00000E+00  9.000E+00
      -6     2     1     2     0   502 -1.434521752E+02  3.408784596E+01 -3.870981742E+02  4.487736869E+02  1.726624388E+02  0.00000E+00  9.000E+00
       6     2     1     2   507     0  1.180586163E+02 -1.141693923E+01 -1.597537455E+02  2.632021018E+02  1.722959774E+02  0.00000E+00  9.000E+00
     -24     2     3     3     0     0 -1.537809658E+02  3.720547383E+01 -2.206623455E+02  2.816653405E+02  7.490434299E+01  0.00000E+00  9.000E+00
      24     2     4     4     0     0  4.380946353E+01 -4.730177077E+01 -2.709504802E+01  1.066910755E+02  8.057367653E+01  0.00000E+00  9.000E+00
     -11     1     6     6     0     0 -1.859162782E+01 -3.401109284E+01 -1.599738792E+01  4.193232025E+01  0.000000000E+00  0.00000E+00  9.000E+00
      12     1     6     6     0     0  6.240109135E+01 -1.329067793E+01 -1.109766010E+01  6.475875524E+01  6.529361695E-07  0.00000E+00  9.000E+00
      13     1     5     5     0     0 -5.847732016E+01  1.489568584E+00 -3.047640276E+01  6.595928223E+01  0.000000000E+00  0.00000E+00  9.000E+00
     -14     1     5     5     0     0 -9.530364564E+01  3.571590525E+01 -1.901859428E+02  2.157060583E+02  4.672030912E-06  0.00000E+00  9.000E+00
       5     1     4     4   512     0  7.397268099E+01  3.560338509E+01 -1.300121692E+02  1.538352535E+02  4.750000000E+00  0.00000E+00  9.000E+00
      -5     1     3     3     0   513  5.286785984E+00  8.844283730E-01 -1.218394961E+02  1.220498162E+02  4.750000000E+00  0.00000E+00  9.000E+00
       1     1     1     2   511     0  2.539355896E+01 -2.267090673E+01 -5.998600151E+02  6.008251331E+02  0.000000000E+00  0.00000E+00  9.000E+00
      21     1     3     3   513   502  5.042004571E+00 -4.002056248E+00 -4.459633256E+01  4.505853018E+01  8.259061849E-07  0.00000E+00  9.000E+00
      21     1     4     4   507   512  2.764717683E-01  2.814464594E-01 -2.646528258E+00  2.675772892E+00  4.214684851E-08  0.00000E+00  9.000E+00
#rwgt            1           4  0.15559929744010662                1     3907060           0       11110           0
<weights>
0.45630E+01
</weights>
</event>
<event>
     15  10001  1.35503E+01  1.19811E+01 -1.00000E+00  2.46500E-01
      -1    -1     0     0     0   512  0.000000000E+00  0.000000000E+00  1.690462744E+02  1.690462744E+02  0.000000000E+00  0.00000E+00  9.000E+00
       1    -1     0     0   507     0  0.000000000E+00  0.000000000E+00 -6.046898190E+02  6.046898190E+02  0.000000000E+00  0.00000E+00  9.000E+00
      -6     2     1     2     0   501 -1.063768920E+02  5.941703002E+01  1.397316506E+01  2.111118138E+02  1.718328315E+02  0.00000E+00  9.000E+00
       6     2     1     2   507     0  1.171677832E+02 -5.421102799E+01 -4.820531310E+02  5.280458583E+02  1.725980372E+02  0.00000E+00  9.000E+00
     -24     2     3     3     0     0 -5.654165581E+01  5.627483907E+01  7.096832436E+01  1.339492007E+02  8.088305734E+01  0.00000E+00  9.000E+00
      24     2     4     4     0     0  8.295295941E+01  3.171907608E+01 -2.316425846E+02  2.608904506E+02  8.073566097E+01  0.00000E+00  9.000E+00
     -11     1     6     6     0     0  5.190088404E+01  2.924715875E+01 -5.358218105E+01  8.012582721E+01  0.000000000E+00  0.00000E+00  9.000E+00
      12     1     6     6     0     0  3.105207537E+01  2.471917329E+00 -1.780604035E+02  1.807646234E+02  3.303624740E-06  0.00000E+00  9.000E+00
      13     1     5     5     0     0  2.006362873E+01  1.920872500E+01  2.422083922E+01  3.685340373E+01  0.000000000E+00  0.00000E+00  9.000E+00
     -14     1     5     5     0     0 -7.660528454E+01  3.706611407E+01  4.674748514E+01  9.709579702E+01  3.631483605E-06  0.00000E+00  9.000E+00
       5     1     4     4   513     0  3.225175195E+01 -8.469853542E+01 -2.450152320E+02  2.612834549E+02  4.750000000E+00  0.00000E+00  9.000E+00
      -5     1     3     3     0   511 -4.787123231E+01  6.033495512E+00 -5.239597597E+01  7.138598426E+01  4.750000000E+00  0.00000E+00  9.000E+00
      21     1     1     2   501   512 -1.079089117E+01 -5.206002028E+00  3.243642127E+01  3.457842122E+01  4.768371582E-07  0.00000E+00  9.000E+00
      21     1     3     3   511   501 -1.964003906E+00 -2.891304563E+00 -4.599183322E+00  5.776628831E+00  1.332800375E-07  0.00000E+00  9.000E+00
      21     1     4     4   507   513  1.963071834E+00 -1.231568655E+00 -5.395314447E+00  5.871952857E+00  8.429369702E-08  0.00000E+00  9.000E+00
#rwgt            1           2  0.22896990468688624                1     3910310           0       11110           0
<weights>
0.18395E+02
</weights>
</event>
<event>
     15  10001 -1.35503E+01  1.75150E+02 -1.00000E+00  3.64503E-01
      21    -1     0     0   511   501  0.000000000E+00  0.000000000E+00  4.147314983E+02  4.147314983E+02  0.000000000E+00  0.00000E+00  9.000E+00
      21    -1     0     0   507   502  0.000000000E+00  0.000000000E+00 -2.021086608E+03  2.021086608E+03  0.000000000E+00  0.00000E+00  9.000E+00
      -6     2     1     2     0   501 -1.145303070E+02 -9.446517865E+01  2.737546987E+02  3.486802553E+02  1.568292836E+02  0.00000E+00  9.000E+00
       6     2     1     2   507     0  1.712791846E+02  2.601670876E+02 -2.267607827E+02  4.245373101E+02  1.782919026E+02  0.00000E+00  9.000E+00
     -24     2     3     3     0     0 -9.089474866E+01 -3.219428078E+01  1.818936266E+02  2.349015459E+02  1.131155065E+02  0.00000E+00  9.000E+00
      24     2     4     4     0     0  1.100687373E+02  1.421066548E+02 -2.134123416E+02  2.904318355E+02  8.060021843E+01  0.00000E+00  9.000E+00
     -11     1     6     6     0     0  4.603611674E+01  1.135966316E+02 -1.053265441E+02  1.616081671E+02  0.000000000E+00  0.00000E+00  9.000E+00
      12     1     6     6     0     0  6.403262058E+01  2.851002322E+01 -1.080857975E+02  1.288236684E+02  2.336015456E-06  0.00000E+00  9.000E+00
      13     1     5     5     0     0 -6.262191753E+01 -6.954926370E+01  1.544932741E+02  1.806288359E+02  0.000000000E+00  0.00000E+00  9.000E+00
     -14     1     5     5     0     0 -2.827283114E+01  3.735498292E+01  2.740035252E+01  5.427270997E+01  3.034573093E-06  0.00000E+00  9.000E+00
       5     1     4     4   512     0  5.875711746E+01  1.108987108E+02 -1.055133527E+01  1.260349796E+02  4.750000000E+00  0.00000E+00  9.000E+00
      -5     1     3     3     0   514 -2.036434168E+01 -5.743080545E+01  8.597392896E+01  1.054849884E+02  4.750000000E+00  0.00000E+00  9.000E+00
      21     1     1     2   511   502 -5.674887763E+01 -1.657019090E+02 -1.653349026E+03  1.662600541E+03  0.000000000E+00  0.00000E+00  9.000E+00
      21     1     4     4   507   512  2.453329809E+00  7.161721977E+00 -2.797105814E+00  8.070495013E+00  1.074538015E-07  0.00000E+00  9.000E+00
      21     1     3     3   514   501 -3.271216616E+00 -4.840092416E+00  5.887143173E+00  8.293720967E+00  3.475518164E-07  0.00000E+00  9.000E+00
#rwgt            1          17  -103.55676141270064                1     3914073           0       11011           0
<weights>
-.15312E+02
</weights>
</event>
<event>
     13  10001  1.35503E+01  6.09236E+01 -1.00000E+00  1.34350E-01
      21    -1     0     0   502   501  0.000000000E+00  0.000000000E+00  4.268201557E+02  4.268201557E+02  0.000000000E+00  0.00000E+00  9.000E+00
      21    -1     0     0   512   502  0.000000000E+00  0.000000000E+00 -2.421094215E+02  2.421094215E+02  0.000000000E+00  0.00000E+00  9.000E+00
      -6     2     1     2     0   501  1.739834494E+01 -1.652848566E+02 -6.444948944E+01  2.484569043E+02  1.730760249E+02  0.00000E+00  9.000E+00
       6     2     1     2   507     0  4.176550060E+01  1.798219507E+02  2.558554957E+02  3.591822626E+02  1.716670386E+02  0.00000E+00  9.000E+00
     -24     2     3     3     0     0  4.477225392E+01 -4.158460793E+01  1.164341326E+01  1.005928629E+02  7.905390982E+01  0.00000E+00  9.000E+00
      24     2     4     4     0     0  7.089275999E+01  1.550911373E+02  2.595718427E+02  3.204991384E+02  7.913982490E+01  0.00000E+00  9.000E+00
     -11     1     6     6     0     0  7.044648350E+01  6.154228514E+01  1.140938944E+02  1.475383904E+02  0.000000000E+00  0.00000E+00  9.000E+00
      12     1     6     6     0     0  4.462764944E-01  9.354885218E+01  1.454779483E+02  1.729607480E+02  5.394796609E-06  0.00000E+00  9.000E+00
      13     1     5     5     0     0  5.459031654E+01 -3.434997393E+01 -1.930730988E+01  6.732603941E+01  0.000000000E+00  0.00000E+00  9.000E+00
     -14     1     5     5     0     0 -9.818062619E+00 -7.234633995E+00  3.095072313E+01  3.326682349E+01  3.371747881E-07  0.00000E+00  9.000E+00
       5     1     4     4   507     0 -2.912725939E+01  2.473081335E+01 -3.716346991E+00  3.868312427E+01  4.750000000E+00  0.00000E+00  9.000E+00
      -5     1     3     3     0   501 -2.737390897E+01 -1.237002487E+02 -7.609290269E+01  1.478640414E+02  4.750000000E+00  0.00000E+00  9.000E+00
      21     1     1     2   512   507 -5.916384554E+01 -1.453709408E+01 -6.695272086E+00  6.129041028E+01  4.380028980E-07  0.00000E+00  9.000E+00
#rwgt            2         113   1.8337636257173082                1     3948741           0           1           0
<weights>
0.13550E+02
</weights>
</event>
<event>
     15  10001 -1.35503E+01  6.26998E+00 -1.00000E+00  1.35364E-01
       1    -1     0     0   513     0  0.000000000E+00  0.000000000E+00  7.287616073E+02  7.287616073E+02  0.000000000E+00  0.00000E+00  9.000E+00
      -1    -1     0     0     0   502  0.000000000E+00  0.000000000E+00 -1.528065142E+02  1.528065142E+02  0.000000000E+00  0.00000E+00  9.000E+00
      -6     2     1     2     0   502 -7.413518654E+01  2.028289219E+02  5.183246708E+02  5.847223850E+02  1.631079570E+02  0.00000E+00  9.000E+00
       6     2     1     2   507     0  7.920726548E+01 -2.065149281E+02  4.685770601E+01  2.843812252E+02  1.724958846E+02  0.00000E+00  9.000E+00
     -24     2     3     3     0     0 -6.288093484E+00  1.387810790E+02  4.010520618E+02  4.320605051E+02  8.083189826E+01  0.00000E+00  9.000E+00
      24     2     4     4     0     0  3.872846770E+01 -2.069411299E+02  6.211773920E+00  2.256126042E+02  8.085750171E+01  0.00000E+00  9.000E+00
     -11     1     6     6     0     0  2.714156641E+01 -1.992256249E+02 -1.345727043E+01  2.015157869E+02  0.000000000E+00  0.00000E+00  9.000E+00
      12     1     6     6     0     0  1.158690128E+01 -7.715505022E+00  1.966904435E+01  2.409681731E+01  5.840038640E-07  0.00000E+00  9.000E+00
      13     1     5     5     0     0 -2.406427930E+01  3.508318919E+01  2.069553659E+02  2.112828511E+02  0.000000000E+00  0.00000E+00  9.000E+00
     -14     1     5     5     0     0  1.777618581E+01  1.036978898E+02  1.940966959E+02  2.207776540E+02  6.031565972E-06  0.00000E+00  9.000E+00
       5     1     4     4   512     0  3.733005385E+01  3.419337690E+00  3.401333258E+01  5.083988674E+01  4.750000000E+00  0.00000E+00  9.000E+00
      -5     1     3     3     0   511 -2.294897458E+00  1.061514534E+01  7.261836662E+00  1.390124587E+01  4.750000000E+00  0.00000E+00  9.000E+00
      21     1     3     3   511   502 -6.555219560E+01  5.343269751E+01  1.100107724E+02  1.387606340E+02  3.568322551E-06  0.00000E+00  9.000E+00
      21     1     1     2   513   507 -5.072078936E+00  3.686006265E+00  1.077271621E+01  1.246451128E+01  1.192092896E-07  0.00000E+00  9.000E+00
      21     1     4     4   507   512  3.148743931E+00 -2.993135911E+00  6.632599514E+00  7.928734277E+00  1.192092896E-07  0.00000E+00  9.000E+00
#rwgt            1           4  -7.3132782632829477E-002           1     3949180           0      110110           0
<weights>
-.13675E+02
</weights>
</event>
<event>
     14  10001  1.35503E+01  4.36545E+01 -1.00000E+00  2.72976E-01
      21    -1     0     0   502   512  0.000000000E+00  0.000000000E+00  5.071148305E+02  5.071148305E+02  0.000000000E+00  0.00000E+00  9.000E+00
      21    -1     0     0   507   502  0.000000000E+00  0.000000000E+00 -6.507346763E+02  6.507346763E+02  0.000000000E+00  0.00000E+00  9.000E+00
      -6     2     1     2     0   501 -1.099937105E+02  5.989070459E+01 -1.603928918E+02  2.677478044E+02  1.740042936E+02  0.00000E+00  9.000E+00
       6     2     1     2   507     0  1.488059877E+02 -3.990764275E+01 -4.044659814E+02  4.666066801E+02  1.743365192E+02  0.00000E+00  9.000E+00
     -24     2     3     3     0     0 -9.221917433E+01  7.375890653E+01 -4.417649267E+01  1.487203503E+02  7.887602723E+01  0.00000E+00  9.000E+00
      24     2     4     4     0     0  8.171946305E+01  4.169224670E+01 -2.680410648E+02  2.939988468E+02  7.856841251E+01  0.00000E+00  9.000E+00
     -11     1     6     6     0     0  2.333319630E+01  4.413086457E+01 -1.903302094E+02  1.967677816E+02  0.000000000E+00  0.00000E+00  9.000E+00
      12     1     6     6     0     0  5.838626675E+01 -2.438617878E+00 -7.771085537E+01  9.723106522E+01  2.132480600E-06  0.00000E+00  9.000E+00
      13     1     5     5     0     0  5.903210884E+00  2.956517704E+01 -2.552019737E+01  3.949972236E+01  0.000000000E+00  0.00000E+00  9.000E+00
     -14     1     5     5     0     0 -9.812238521E+01  4.419372949E+01 -1.865629529E+01  1.092206279E+02  2.676241913E-06  0.00000E+00  9.000E+00
       5     1     4     4   507     0  6.708652469E+01 -8.159988944E+01 -1.364249166E+02  1.726078333E+02  4.750000000E+00  0.00000E+00  9.000E+00
      -5     1     3     3     0   511 -1.942085095E+01 -1.300298530E+01 -1.084461704E+02  1.110377479E+02  4.750000000E+00  0.00000E+00  9.000E+00
      21     1     1     2   501   512 -3.881227720E+01 -1.998306184E+01  4.212390274E+02  4.234950222E+02  5.394796609E-06  0.00000E+00  9.000E+00
      21     1     3     3   511   501  1.646314742E+00 -8.652166516E-01 -7.770228753E+00  7.989706312E+00  1.884864366E-07  0.00000E+00  9.000E+00
#rwgt            1          17   10.105317313293972                1     3955085           0         111           0
<weights>
0.22611E+02
</weights>
</event>
<event>
     15  10001  1.35503E+01  4.00289E+01 -1.00000E+00  4.62285E-01
      21    -1     0     0   511   501  0.000000000E+00  0.000000000E+00  7.000980920E+02  7.000980920E+02  0.000000000E+00  0.00000E+00  9.000E+00
      21    -1     0     0   501   502  0.000000000E+00  0.000000000E+00 -2.661450410E+02  2.661450410E+02  0.000000000E+00  0.00000E+00  9.000E+00
      -6     2     1     2     0   502 -1.711822930E+02 -2.412444115E+01 -1.583005659E+02  2.906869135E+02  1.719140670E+02  0.00000E+00  9.000E+00
       6     2     1     2   507     0  1.595535018E+02  6.242702321E+01  3.531603180E+02  4.331352588E+02  1.831105924E+02  0.00000E+00  9.000E+00
     -24     2     3     3     0     0 -7.422406020E+01 -4.467474421E+01 -1.900082029E+01  1.193510625E+02  7.986614462E+01  0.00000E+00  9.000E+00
      24     2     4     4     0     0  3.689266285E+01  7.178892685E+01  2.203819705E+02  2.477721058E+02  7.942345288E+01  0.00000E+00  9.000E+00
     -11     1     6     6     0     0  2.244969463E+01  8.006502210E+01  1.198495245E+02  1.458708507E+02  0.000000000E+00  0.00000E+00  9.000E+00
      12     1     6     6     0     0  1.444296821E+01 -8.276095253E+00  1.005324460E+02  1.019012551E+02  1.348699152E-06  0.00000E+00  9.000E+00
      13     1     5     5     0     0 -6.509741186E+01 -6.360702241E+01 -2.973917547E+01  9.574938584E+01  0.000000000E+00  0.00000E+00  9.000E+00
     -14     1     5     5     0     0 -9.126648338E+00  1.893227820E+01  1.073835517E+01  2.360167663E+01  8.429369702E-07  0.00000E+00  9.000E+00
       5     1     4     4   512     0  4.308879300E+01 -2.110274039E+01  4.064576914E+01  6.306037411E+01  4.750000000E+00  0.00000E+00  9.000E+00
      -5     1     3     3     0   513 -9.654007768E+01  2.104134140E+01 -1.372210864E+02  1.691594328E+02  4.750000000E+00  0.00000E+00  9.000E+00
      21     1     1     2   511   507  1.162879116E+01 -3.830258206E+01  2.390932990E+02  2.424209607E+02  3.814697266E-06  0.00000E+00  9.000E+00
      21     1     4     4   507   512  7.957204597E+01  1.174083675E+01  9.213257831E+01  1.223027789E+02  2.336015456E-06  0.00000E+00  9.000E+00
      21     1     3     3   513   502 -4.181551060E-01 -4.910383367E-01 -2.078659245E+00  2.176418295E+00  2.980232239E-08  0.00000E+00  9.000E+00
#rwgt            1          17   4.8890127460503718                1     3963859           0       11011           0
<weights>
0.21188E+02
</weights>
</event>
<event>
     13  10001  1.35503E+01  5.33129E+01 -1.00000E+00  1.37504E-01
      21    -1     0     0   507   501  0.000000000E+00  0.000000000E+00  5.165672149E+01  5.165672149E+01  0.000000000E+00  0.00000E+00  9.000E+00
      21    -1     0     0   501   512  0.000000000E+00  0.000000000E+00 -1.363237370E+03  1.363237370E+03  0.000000000E+00  0.00000E+00  9.000E+00
      -6     2     1     2     0   502 -1.107504126E+02 -1.279531571E+02 -6.980733573E+02  7.402192030E+02  1.788306239E+02  0.00000E+00  9.000E+00
       6     2     1     2   507     0  1.258236242E+02  7.681546317E+01 -4.769604079E+02  5.280893612E+02  1.722061061E+02  0.00000E+00  9.000E+00
     -24     2     3     3     0     0 -3.765596396E+01  5.901969504E+00 -1.998847520E+02  2.191871097E+02  8.146330525E+01  0.00000E+00  9.000E+00
      24     2     4     4     0     0  9.759869540E+01  9.152619427E+01 -4.698206645E+02  4.951258867E+02  8.071949808E+01  0.00000E+00  9.000E+00
     -11     1     6     6     0     0 -8.294399892E+00  3.266586872E+01 -7.714822526E+01  8.418850699E+01  0.000000000E+00  0.00000E+00  9.000E+00
      12     1     6     6     0     0  1.058930953E+02  5.886032555E+01 -3.926724392E+02  4.109373797E+02  5.394796609E-06  0.00000E+00  9.000E+00
      13     1     5     5     0     0 -1.969365308E+01 -2.086043406E+01 -1.778373361E+02  1.801363811E+02  0.000000000E+00  0.00000E+00  9.000E+00
     -14     1     5     5     0     0 -1.796231088E+01  2.676240356E+01 -2.204741593E+01  3.905072862E+01  5.331201500E-07  0.00000E+00  9.000E+00
       5     1     4     4   507     0  2.822492882E+01 -1.471073110E+01 -7.139743419E+00  3.296347452E+01  4.750000000E+00  0.00000E+00  9.000E+00
      -5     1     3     3     0   502 -7.309444866E+01 -1.338551266E+02 -4.981886053E+02  5.210320933E+02  4.750000000E+00  0.00000E+00  9.000E+00
      21     1     1     2   502   512 -1.507321161E+01  5.113769393E+01 -1.365468837E+02  1.465855276E+02  1.907348633E-06  0.00000E+00  9.000E+00
#rwgt            2         113   1.7699709035672455                1     3995873           0           1           0
<weights>
0.13550E+02
</weights>
</event>
<event>
     15  10001 -1.35503E+01  4.60094E+00 -1.00000E+00  1.56546E-01
      -2    -1     0     0     0   513  0.000000000E+00  0.000000000E+00  2.763193792E+02  2.763193792E+02  0.000000000E+00  0.00000E+00  9.000E+00
       2    -1     0     0   507     0  0.000000000E+00  0.000000000E+00 -3.505216222E+02  3.505216222E+02  0.000000000E+00  0.00000E+00  9.000E+00
      -6     2     1     2     0   501  2.537826999E+02  4.535993306E+01 -4.579277366E+01  3.133644662E+02  1.721543734E+02  0.00000E+00  9.000E+00
       6     2     1     2   507     0 -2.502938149E+02 -4.835931608E+01 -2.462506840E+01  3.075191609E+02  1.702234506E+02  0.00000E+00  9.000E+00
     -24     2     3     3     0     0  2.188563870E+02  8.214868934E+01 -3.279683177E+01  2.496463873E+02  8.124753065E+01  0.00000E+00  9.000E+00
      24     2     4     4     0     0 -2.585919956E+02 -5.018896249E+01 -4.942748163E+01  2.797785223E+02  8.027573406E+01  0.00000E+00  9.000E+00
     -11     1     6     6     0     0 -6.155658157E+01  5.843355557E+00 -4.209043669E+01  7.479948128E+01  0.000000000E+00  0.00000E+00  9.000E+00
      12     1     6     6     0     0 -1.970354140E+02 -5.603231804E+01 -7.337044943E+00  2.049790410E+02  6.349503510E-06  0.00000E+00  9.000E+00
      13     1     5     5     0     0  8.842558814E+01  4.294543833E+01  2.541150483E+01  1.015339347E+02  0.000000000E+00  0.00000E+00  9.000E+00
     -14     1     5     5     0     0  1.304307989E+02  3.920325101E+01 -5.820833660E+01  1.481124527E+02  6.289914111E-06  0.00000E+00  9.000E+00
       5     1     4     4   512     0  9.723877895E+00  1.399201952E+00  2.234660131E+01  2.486854756E+01  4.750000000E+00  0.00000E+00  9.000E+00
      -5     1     3     3     0   511  1.495490946E+01 -2.623702363E+01  9.325768427E+00  3.196190205E+01  4.750000000E+00  0.00000E+00  9.000E+00
      21     1     3     3   511   501  1.997140338E+01 -1.055173266E+01 -2.232171032E+01  3.175617683E+01  3.371747881E-07  0.00000E+00  9.000E+00
      21     1     1     2   501   513 -3.488884964E+00  2.999383021E+00 -3.784400940E+00  5.957374193E+00  4.214684851E-08  0.00000E+00  9.000E+00
      21     1     4     4   507   512 -1.425697228E+00  4.304444567E-01  2.455811914E+00  2.872091080E+00  9.884312124E-08  0.00000E+00  9.000E+00
#rwgt            1           6  -1.0627213570322631                1     3997896           0      110110           0
<weights>
-.14471E+02
</weights>
</event>
<event>
     15  10001  1.35503E+01  7.00731E+01 -1.00000E+00  2.73146E-01
      -2    -1     0     0     0   501  0.000000000E+00  0.000000000E+00  1.201691491E+03  1.201691491E+03  0.000000000E+00  0.00000E+00  9.000E+00
      21    -1     0     0   507   512  0.000000000E+00  0.000000000E+00 -7.958888514E+01  7.958888514E+01  0.000000000E+00  0.00000E+00  9.000E+00
      -6     2     1     2     0   501  9.409045997E+01  2.737092781E+01  8.111794049E+02  8.362118290E+02  1.778651559E+02  0.00000E+00  9.000E+00
       6     2     1     2   507     0 -3.323783370E+01 -6.211562603E+01  3.243174938E+02  3.737268120E+02  1.718336074E+02  0.00000E+00  9.000E+00
     -24     2     3     3     0     0  2.872514906E+01  6.785655255E+01  3.124966798E+02  3.313598374E+02  8.194828282E+01  0.00000E+00  9.000E+00
      24     2     4     4     0     0 -6.225607885E+01 -3.837578660E+01  3.173782589E+02  3.330591396E+02  6.964848130E+01  0.00000E+00  9.000E+00
     -11     1     6     6     0     0 -5.880757281E+01  3.376702988E+00  1.752184949E+02  1.848546826E+02  0.000000000E+00  0.00000E+00  9.000E+00
      12     1     6     6     0     0 -3.448506036E+00 -4.175248959E+01  1.421597640E+02  1.482044570E+02  2.697398305E-06  0.00000E+00  9.000E+00
      13     1     5     5     0     0 -1.101095752E+01  4.429523249E+01  2.471724603E+02  2.513514152E+02  0.000000000E+00  0.00000E+00  9.000E+00
     -14     1     5     5     0     0  3.973610657E+01  2.356132006E+01  6.532421950E+01  8.000842219E+01  1.348699152E-06  0.00000E+00  9.000E+00
       5     1     4     4   511     0  2.967342639E+01 -2.088273007E+01  8.158412747E+00  3.749297064E+01  4.750000000E+00  0.00000E+00  9.000E+00
      -5     1     3     3     0   513  5.967177588E+01 -4.045176575E+01  4.767108355E+02  4.821543833E+02  4.750000000E+00  0.00000E+00  9.000E+00
      -2     1     1     2     0   512 -6.085262627E+01  3.474469821E+01 -1.339429231E+01  7.134173565E+01  0.000000000E+00  0.00000E+00  9.000E+00
      21     1     4     4   507   511 -6.551812439E-01 -2.857109349E+00 -1.219177836E+00  3.174701701E+00  2.269677253E-07  0.00000E+00  9.000E+00
      21     1     3     3   513   501  5.693535037E+00 -3.385898648E-02  2.197188963E+01  2.269760828E+01  3.371747881E-07  0.00000E+00  9.000E+00
#rwgt            1           6  0.18654958430287968                1     4005369           0       11011           0
<weights>
-.73836E+00
</weights>
</event>
<event>
     15  10001  1.35503E+01  2.25966E+01 -1.00000E+00  3.85940E-01
      21    -1     0     0   502   511  0.000000000E+00  0.000000000E+00  5.515032126E+01  5.515032126E+01  0.000000000E+00  0.00000E+00  9.000E+00
      21    -1     0     0   507   502  0.000000000E+00  0.000000000E+00 -1.019876838E+03  1.019876838E+03  0.000000000E+00  0.00000E+00  9.000E+00
      -6     2     1     2     0   501 -1.582817664E+01 -1.242003692E+02 -5.741339006E+02  6.122907820E+02  1.720290762E+02  0.00000E+00  9.000E+00
       6     2     1     2   507     0 -3.292454853E+00  1.362422073E+02 -3.163670731E+02  3.851474885E+02  1.722721209E+02  0.00000E+00  9.000E+00
     -24     2     3     3     0     0 -5.023921141E+01 -1.398520701E+02 -4.052426020E+02  4.389685598E+02  7.993278498E+01  0.00000E+00  9.000E+00
      24     2     4     4     0     0 -6.870895848E+01  9.291859061E+01 -1.891912833E+02  2.352075592E+02  7.857778814E+01  0.00000E+00  9.000E+00
     -11     1     6     6     0     0 -5.866612346E+01  3.704483081E+01 -1.526937494E+02  1.677182597E+02  0.000000000E+00  0.00000E+00  9.000E+00
      12     1     6     6     0     0 -1.004283502E+01  5.587375980E+01 -3.649753386E+01  6.748929950E+01  3.504023184E-06  0.00000E+00  9.000E+00
      13     1     5     5     0     0  3.804658054E+00 -1.028096787E+02 -2.338967712E+02  2.555230029E+02  0.000000000E+00  0.00000E+00  9.000E+00
     -14     1     5     5     0     0 -5.404386946E+01 -3.704239142E+01 -1.713458308E+02  1.834455568E+02  1.907348633E-06  0.00000E+00  9.000E+00
       5     1     4     4   514     0  6.498487147E+01  4.338935808E+01 -1.273361188E+02  1.494748125E+02  4.750000000E+00  0.00000E+00  9.000E+00
      -5     1     3     3     0   512  3.277052309E+01  1.619672367E+01 -1.549578572E+02  1.592819546E+02  4.750000000E+00  0.00000E+00  9.000E+00
      21     1     1     2   501   511  1.912063150E+01 -1.204183808E+01 -7.422554341E+01  7.758888907E+01  0.000000000E+00  0.00000E+00  9.000E+00
      21     1     3     3   512   501  1.640511672E+00 -5.450228107E-01 -1.393344135E+01  1.404026767E+01  2.384185791E-07  0.00000E+00  9.000E+00
      21     1     4     4   507   514  4.316321577E-01 -6.574138513E-02  1.603289800E-01  4.651167930E-01  1.686696920E-08  0.00000E+00  9.000E+00
#rwgt            1          17   29.886512042334971                1     4010425           0       11110           0
<weights>
0.12688E+02
</weights>
</event>
<event>
     15  10001  1.35503E+01  5.44399E+01 -1.00000E+00  1.46348E-01
      21    -1     0     0   502   512  0.000000000E+00  0.000000000E+00  5.371743760E+01  5.371743760E+01  0.000000000E+00  0.00000E+00  9.000E+00
      21    -1     0     0   507   502  0.000000000E+00  0.000000000E+00 -1.152043767E+03  1.152043767E+03  0.000000000E+00  0.00000E+00  9.000E+00
      -6     2     1     2     0   501 -5.886091246E+01  8.839656352E+01 -2.732412656E+02  3.403603766E+02  1.729330428E+02  0.00000E+00  9.000E+00
       6     2     1     2   507     0  7.354604269E+00 -7.076709671E+01 -4.650682105E+02  5.012911844E+02  1.730385476E+02  0.00000E+00  9.000E+00
     -24     2     3     3     0     0 -6.585548773E+01  5.084281527E+01 -2.669089152E+02  2.907280203E+02  7.975259041E+01  0.00000E+00  9.000E+00
      24     2     4     4     0     0 -4.886664635E+01 -1.892908802E+01 -1.591080297E+02  1.857656689E+02  8.029482613E+01  0.00000E+00  9.000E+00
     -11     1     6     6     0     0 -5.893104387E+01  1.247144522E+01 -1.224212003E+02  1.364381001E+02  0.000000000E+00  0.00000E+00  9.000E+00
      12     1     6     6     0     0  1.006439753E+01 -3.140053324E+01 -3.668682942E+01  4.932756874E+01  1.168007728E-06  0.00000E+00  9.000E+00
      13     1     5     5     0     0 -8.124610837E+01  2.730359769E+01 -1.796563630E+02  1.990548300E+02  0.000000000E+00  0.00000E+00  9.000E+00
     -14     1     5     5     0     0  1.539062065E+01  2.353921757E+01 -8.725255213E+01  9.167319031E+01  1.907348633E-06  0.00000E+00  9.000E+00
       5     1     4     4   513     0  5.354087716E+01 -4.984533319E+01 -2.981802859E+02  3.070589979E+02  4.750000000E+00  0.00000E+00  9.000E+00
      -5     1     3     3     0   511 -1.175984053E+01  1.861253119E+01 -1.801638877E+00  2.259487927E+01  4.750000000E+00  0.00000E+00  9.000E+00
      21     1     1     2   501   512  5.150630819E+01 -1.762946681E+01 -3.600168535E+02  3.641096438E+02  3.814697266E-06  0.00000E+00  9.000E+00
      21     1     3     3   511   501  1.875441580E+01  1.894121706E+01 -4.530711535E+00  2.703747701E+01  4.655271575E-07  0.00000E+00  9.000E+00
      21     1     4     4   507   513  2.680373461E+00 -1.992675503E+00 -7.779894910E+00  8.466517723E+00  1.192092896E-07  0.00000E+00  9.000E+00
#rwgt            1          17   30.214177449054411                1     4018584           0       11110           0
<weights>
0.12699E+02
</weights>
</event>
<event>
     15  10001  1.35503E+01  4.98372E+01 -1.00000E+00  2.62394E-01
      21    -1     0     0   507   511  0.000000000E+00  0.000000000E+00  6.873469740E+02  6.873469740E+02  0.000000000E+00  0.00000E+00  9.000E+00
      21    -1     0     0   501   502  0.000000000E+00  0.000000000E+00 -3.895759372E+02  3.895759372E+02  0.000000000E+00  0.00000E+00  9.000E+00
      -6     2     1     2     0   502  3.298370035E+02 -4.757268073E+00  1.600422108E+02  4.046578759E+02  1.712291061E+02  0.00000E+00  9.000E+00
       6     2     1     2   507     0 -3.773234913E+02 -1.036834822E+01  2.936245757E+02  5.085969701E+02  1.731328012E+02  0.00000E+00  9.000E+00
     -24     2     3     3     0     0  7.507729716E+01  3.004529317E+01  5.580050463E+01  1.265404495E+02  7.974627796E+01  0.00000E+00  9.000E+00
      24     2     4     4     0     0 -2.181935003E+02  2.895147275E+01  2.412042758E+02  3.362962299E+02  8.043046835E+01  0.00000E+00  9.000E+00
     -11     1     6     6     0     0 -1.654120360E+02 -2.608272230E+00  1.347992312E+02  2.133981665E+02  0.000000000E+00  0.00000E+00  9.000E+00
      12     1     6     6     0     0 -5.278146433E+01  3.155974498E+01  1.064050446E+02  1.228980634E+02  3.814697266E-06  0.00000E+00  9.000E+00
      13     1     5     5     0     0  2.325181518E+01 -2.369953447E+01 -2.147819086E-01  3.320182186E+01  0.000000000E+00  0.00000E+00  9.000E+00
     -14     1     5     5     0     0  5.182548197E+01  5.374482765E+01  5.601528654E+01  9.333862762E+01  1.784161275E-06  0.00000E+00  9.000E+00
       5     1     4     4   514     0 -1.583474111E+02 -3.879542682E+01  5.253463681E+01  1.713517969E+02  4.750000000E+00  0.00000E+00  9.000E+00
      -5     1     3     3     0   512  2.446616621E+02 -3.705007730E+01  9.989837880E+01  2.668975191E+02  4.750000000E+00  0.00000E+00  9.000E+00
      21     1     1     2   501   511  4.748648773E+01  1.512561629E+01 -1.558957497E+02  1.636680651E+02  3.814697266E-06  0.00000E+00  9.000E+00
      21     1     3     3   512   502  1.009804431E+01  2.247516055E+00  4.343327362E+00  1.121990730E+01  2.731427965E-07  0.00000E+00  9.000E+00
      21     1     4     4   507   514 -7.825799133E-01 -5.243941482E-01 -1.143368913E-01  9.489433429E-01  4.183701695E-08  0.00000E+00  9.000E+00
#rwgt            1          17   9.5211265530783749                1     4028929           0       11110           0
<weights>
0.23920E+02
</weights>
</event>
<event>
     13  10001  1.35503E+01  6.97579E+01 -1.00000E+00  1.31297E-01
      21    -1     0     0   507   501  0.000000000E+00  0.000000000E+00  6.353239086E+02  6.353239086E+02  0.000000000E+00  0.00000E+00  9.000E+00
      21    -1     0     0   501   512  0.000000000E+00  0.000000000E+00 -3.553961681E+02  3.553961681E+02  0.000000000E+00  0.00000E+00  9.000E+00
      -6     2     1     2     0   502  2.200809749E+02 -1.875434335E+02  3.102132900E+02  4.604013358E+02  1.792454453E+02  0.00000E+00  9.000E+00
       6     2     1     2   507     0 -1.566118140E+02  1.585981866E+02  1.623293064E+02  3.254611211E+02  1.728973468E+02  0.00000E+00  9.000E+00
     -24     2     3     3     0     0  5.218838512E+01 -1.497080225E+01  7.762561795E+01  1.256046475E+02  8.248053374E+01  0.00000E+00  9.000E+00
      24     2     4     4     0     0 -1.004464123E+01  6.882168874E+01  8.907050828E+01  1.385622990E+02  8.017877268E+01  0.00000E+00  9.000E+00
     -11     1     6     6     0     0 -2.725100142E+01  1.349180376E+01 -2.161649305E+00  3.048472691E+01  0.000000000E+00  0.00000E+00  9.000E+00
      12     1     6     6     0     0  1.720636019E+01  5.532988498E+01  9.123215758E+01  1.080775720E+02  1.348699152E-06  0.00000E+00  9.000E+00
      13     1     5     5     0     0  6.093505253E+01 -2.525229780E+01  2.381670639E+01  7.012841560E+01  0.000000000E+00  0.00000E+00  9.000E+00
     -14     1     5     5     0     0 -8.746667406E+00  1.028149555E+01  5.380891156E+01  5.547623189E+01  1.168007728E-06  0.00000E+00  9.000E+00
       5     1     4     4   507     0 -1.465671728E+02  8.977649787E+01  7.325879808E+01  1.868988221E+02  4.750000000E+00  0.00000E+00  9.000E+00
      -5     1     3     3     0   502  1.678925898E+02 -1.725726313E+02  2.325876721E+02  3.347966883E+02  4.750000000E+00  0.00000E+00  9.000E+00
      21     1     1     2   502   512 -6.346916091E+01  2.894524690E+01 -1.926148559E+02  2.048576199E+02  3.814697266E-06  0.00000E+00  9.000E+00
#rwgt            2         113  0.83542526450602272                1     4040005           0           1           0
<weights>
0.13550E+02
</weights>
</event>
<event>
     14  10001  1.35503E+01  1.59850E+02 -1.00000E+00  7.46076E-01
      21    -1     0     0   507   511  0.000000000E+00  0.000000000E+00  8.342106383E+02  8.342106383E+02  0.000000000E+00  0.00000E+00  9.000E+00
      21    -1     0     0   501   502  0.000000000E+00  0.000000000E+00 -1.377231744E+02  1.377231744E+02  0.000000000E+00  0.00000E+00  9.000E+00
      -6     2     1     2     0   502 -1.159138235E+02  5.227808606E+01  4.387373518E+02  4.887335843E+02  1.737844638E+02  0.00000E+00  9.000E+00
       6     2     1     2   507     0  9.063186467E+00  6.661214094E+01  2.639503664E+02  3.232302691E+02  1.740364682E+02  0.00000E+00  9.000E+00
     -24     2     3     3     0     0 -1.087848960E+02  4.734346924E+01  1.793253720E+02  2.291332958E+02  7.917651505E+01  0.00000E+00  9.000E+00
      24     2     4     4     0     0  6.229356523E+01  2.801977312E+01  1.242815339E+02  1.632676272E+02  8.090007712E+01  0.00000E+00  9.000E+00
     -11     1     6     6     0     0 -1.728987782E+01  1.700302806E+01  1.885632327E+01  3.071813415E+01  0.000000000E+00  0.00000E+00  9.000E+00
      12     1     6     6     0     0  7.958344305E+01  1.101674506E+01  1.054252106E+02  1.325494931E+02  4.862803949E-06  0.00000E+00  9.000E+00
      13     1     5     5     0     0 -6.833003851E+00  3.603983040E+01  7.119481211E+01  8.008907908E+01  0.000000000E+00  0.00000E+00  9.000E+00
     -14     1     5     5     0     0 -1.019518921E+02  1.130363883E+01  1.081305599E+02  1.490442168E+02  2.697398305E-06  0.00000E+00  9.000E+00
       5     1     4     4   513     0 -5.231255878E+01  4.611571806E+01  1.307266031E+02  1.482405833E+02  4.750000000E+00  0.00000E+00  9.000E+00
      -5     1     3     3     0   502 -7.128927533E+00  4.934616822E+00  2.594119797E+02  2.596002885E+02  4.750000000E+00  0.00000E+00  9.000E+00
      21     1     1     2   501   511  1.068506370E+02 -1.188902270E+02 -6.200254193E+00  1.599699593E+02  2.175365399E-06  0.00000E+00  9.000E+00
      21     1     4     4   507   513 -9.178199813E-01 -7.523350235E+00  8.942229323E+00  1.172205859E+01  3.953724850E-07  0.00000E+00  9.000E+00
#rwgt            1          17   32.517729700212037                1     4045916           0         110           0
<weights>
0.11958E+02
</weights>
</event>
<event>
     15  10001  1.35503E+01  4.17362E+01 -1.00000E+00  3.37894E-01
      21    -1     0     0   512   501  0.000000000E+00  0.000000000E+00  2.243068655E+02  2.243068655E+02  0.000000000E+00  0.00000E+00  9.000E+00
      21    -1     0     0   501   502  0.000000000E+00  0.000000000E+00 -2.545332607E+02  2.545332607E+02  0.000000000E+00  0.00000E+00  9.000E+00
      -6     2     1     2     0   502 -5.484730892E+01  8.151486451E+01  6.800284469E+01  2.131902173E+02  1.765581531E+02  0.00000E+00  9.000E+00
       6     2     1     2   507     0  2.349277128E+01 -5.396849650E+01 -3.006920527E+01  1.857268226E+02  1.735678156E+02  0.00000E+00  9.000E+00
     -24     2     3     3     0     0 -6.550928734E+01  1.073882102E+02  8.961817499E+01  1.759602022E+02  8.430231932E+01  0.00000E+00  9.000E+00
      24     2     4     4     0     0  5.356194506E+01 -5.121014866E+01 -6.840568953E+01  1.296203928E+02  8.142939639E+01  0.00000E+00  9.000E+00
     -11     1     6     6     0     0  3.001609786E+01 -6.910176607E+01 -6.563289466E+01  9.991845208E+01  0.000000000E+00  0.00000E+00  9.000E+00
      12     1     6     6     0     0  2.354584720E+01  1.789161741E+01 -2.772794874E+00  2.970194077E+01  1.297000357E-06  0.00000E+00  9.000E+00
      13     1     5     5     0     0 -2.788168646E+01 -8.040880504E+00  9.640637886E+00  3.057754238E+01  0.000000000E+00  0.00000E+00  9.000E+00
     -14     1     5     5     0     0 -3.762760089E+01  1.154290907E+02  7.997753710E+01  1.453826598E+02  3.438521648E-06  0.00000E+00  9.000E+00
       5     1     4     4   511     0 -3.096561719E+01 -1.020698507E+00  4.172955102E+01  5.219031712E+01  4.750000000E+00  0.00000E+00  9.000E+00
      -5     1     3     3     0   513  1.054885711E+01 -2.405756697E+01 -2.276025730E+01  3.508043225E+01  4.750000000E+00  0.00000E+00  9.000E+00
      21     1     1     2   512   507  3.135453764E+01 -2.754636801E+01 -6.816003462E+01  7.992308640E+01  9.536743164E-07  0.00000E+00  9.000E+00
      21     1     4     4   507   511  8.964434093E-01 -1.737649336E+00 -3.393066749E+00  3.916112609E+00  4.214684851E-08  0.00000E+00  9.000E+00
      21     1     3     3   513   502  1.131213143E-01 -1.815778709E+00  1.144927002E+00  2.149582888E+00  6.322027277E-08  0.00000E+00  9.000E+00
#rwgt            1          17   20.100954322126931                1     4053358           0       11011           0
<weights>
0.14268E+02
</weights>
</event>
<event>
     15  10001  1.35503E+01  4.67576E+00 -1.00000E+00  6.31495E-01
      21    -1     0     0   511   501  0.000000000E+00  0.000000000E+00  6.450094510E+02  6.450094510E+02  0.000000000E+00  0.00000E+00  9.000E+00
      21    -1     0     0   501   502  0.000000000E+00  0.000000000E+00 -1.885838624E+02  1.885838624E+02  0.000000000E+00  0.00000E+00  9.000E+00
      -6     2     1     2     0   502 -1.606373305E+01 -4.595838886E+01 -9.160402098E+01  2.396138281E+02  2.159936873E+02  0.00000E+00  9.000E+00
       6     2     1     2   507     0  2.049162386E+01  4.445620361E+01  3.243351769E+02  3.702361904E+02  1.717127515E+02  0.00000E+00  9.000E+00
     -24     2     3     3     0     0 -2.037314304E+01 -4.220579300E+01  4.483833694E+01  1.028781777E+02  7.985642783E+01  0.00000E+00  9.000E+00
      24     2     4     4     0     0 -4.806878734E+01  2.419161804E+00  1.345024103E+02  1.638454658E+02  8.023700893E+01  0.00000E+00  9.000E+00
     -11     1     6     6     0     0 -3.161961784E+01  3.539376945E+01  1.094191722E+02  1.192689163E+02  0.000000000E+00  0.00000E+00  9.000E+00
      12     1     6     6     0     0 -1.644916951E+01 -3.297460765E+01  2.508323814E+01  4.457654947E+01  5.840038640E-07  0.00000E+00  9.000E+00
      13     1     5     5     0     0 -1.502630454E+00 -2.087937940E+00  5.687954153E+01  5.693768197E+01  0.000000000E+00  0.00000E+00  9.000E+00
     -14     1     5     5     0     0 -1.887051258E+01 -4.011785506E+01 -1.204120459E+01  4.594049573E+01  1.651812370E-06  0.00000E+00  9.000E+00
       5     1     4     4   512     0  6.601383481E+01  3.852291440E+01  1.815433252E+02  1.970339634E+02  4.750000000E+00  0.00000E+00  9.000E+00
      -5     1     3     3     0   514  3.381207132E+00 -2.997509092E+00 -1.309711476E+02  1.311351274E+02  4.750000000E+00  0.00000E+00  9.000E+00
      21     1     1     2   511   507 -4.427890816E+00  1.502185255E+00  2.236944327E+02  2.237432948E+02  0.000000000E+00  0.00000E+00  9.000E+00
      21     1     4     4   507   512  2.546576398E+00  3.514127409E+00  8.289441343E+00  9.356761223E+00  2.064765462E-07  0.00000E+00  9.000E+00
      21     1     3     3   514   502  9.282028597E-01 -7.550867705E-01 -5.471210301E+00  5.600523077E+00  1.332800375E-07  0.00000E+00  9.000E+00
#rwgt            1          17   588.67159973999708                1     4059501           0       11011           0
<weights>
0.11189E+02
</weights>
</event>
<event>
     15  10001  1.35503E+01  1.62902E+01 -1.00000E+00  1.50190E-01
      21    -1     0     0   507   511  0.000000000E+00  0.000000000E+00  1.646767461E+02  1.646767461E+02  0.000000000E+00  0.00000E+00  9.000E+00
      21    -1     0     0   501   502  0.000000000E+00  0.000000000E+00 -3.017590417E+02  3.017590417E+02  0.000000000E+00  0.00000E+00  9.000E+00
      -6     2     1     2     0   502 -3.911851092E+01 -1.048180512E+01 -1.906821235E+02  2.604992685E+02  1.728006670E+02  0.00000E+00  9.000E+00
       6     2     1     2   507     0  5.467168964E+01  1.532624975E+01  4.369810527E+01  1.868730956E+02  1.725924155E+02  0.00000E+00  9.000E+00
     -24     2     3     3     0     0  1.824091339E+00 -6.399344215E+01 -1.008929643E+02  1.443905089E+02  8.106010658E+01  0.00000E+00  9.000E+00
      24     2     4     4     0     0  5.678269989E+01 -1.356563655E+00 -3.420158980E+01  1.059524834E+02  8.264420565E+01  0.00000E+00  9.000E+00
     -11     1     6     6     0     0  4.918088928E+01 -3.289128329E+01 -4.884549462E-01  5.916785423E+01  0.000000000E+00  0.00000E+00  9.000E+00
      12     1     6     6     0     0  7.601810615E+00  3.153471963E+01 -3.371313485E+01  4.678462919E+01  1.719260824E-06  0.00000E+00  9.000E+00
      13     1     5     5     0     0  3.939268359E+01 -2.264318963E+01 -3.142894822E+01  5.524741028E+01  0.000000000E+00  0.00000E+00  9.000E+00
     -14     1     5     5     0     0 -3.756859225E+01 -4.135025251E+01 -6.946401605E+01  8.914309863E+01  9.536743164E-07  0.00000E+00  9.000E+00
       5     1     4     4   513     0 -1.535396139E+00  1.579588791E+01  7.810589612E+01  7.984335304E+01  4.750000000E+00  0.00000E+00  9.000E+00
      -5     1     3     3     0   512 -7.676549254E+00  2.794342308E+01 -2.329060226E+01  3.748038094E+01  4.750000000E+00  0.00000E+00  9.000E+00
      21     1     3     3   512   502 -3.326605301E+01  2.556821395E+01 -6.649855693E+01  7.862837860E+01  9.536743164E-07  0.00000E+00  9.000E+00
      21     1     1     2   501   511 -1.555317871E+01 -4.844444630E+00  9.901722585E+00  1.906342367E+01  2.064765462E-07  0.00000E+00  9.000E+00
      21     1     4     4   507   513 -5.756141166E-01  8.869254928E-01 -2.062010427E-01  1.077259166E+00  2.775278767E-08  0.00000E+00  9.000E+00
#rwgt            1          17   11.634270074722391                1     4070416           0      110110           0
<weights>
-.46942E+00
</weights>
</event>
<event>
     13  10001  1.35503E+01  7.45388E+00 -1.00000E+00  7.52408E-01
      21    -1     0     0   511   501  0.000000000E+00  0.000000000E+00  3.567827951E+03  3.567827951E+03  0.000000000E+00  0.00000E+00  9.000E+00
      21    -1     0     0   507   502  0.000000000E+00  0.000000000E+00 -4.476113445E+01  4.476113445E+01  0.000000000E+00  0.00000E+00  9.000E+00
      -6     2     1     2     0   501 -8.376795870E+01 -3.529038286E+01  3.257497825E+03  3.263269813E+03  1.713922635E+02  0.00000E+00  9.000E+00
       6     2     1     2   507     0  8.516001582E+01  2.796764907E+01  2.755786127E+02  3.368391774E+02  1.717051018E+02  0.00000E+00  9.000E+00
     -24     2     3     3     0     0 -7.947498138E+01 -3.767135564E+01  1.244933711E+03  1.250694106E+03  8.148864164E+01  0.00000E+00  9.000E+00
      24     2     4     4     0     0  3.414337129E+01  1.018543996E+01  2.676706522E+02  2.820303887E+02  8.138826154E+01  0.00000E+00  9.000E+00
     -11     1     6     6     0     0  1.311138856E+01 -3.499429228E+01  8.869726327E+01  9.624818706E+01  0.000000000E+00  0.00000E+00  9.000E+00
      12     1     6     6     0     0  2.103198273E+01  4.517973223E+01  1.789733889E+02  1.857822017E+02  0.000000000E+00  0.00000E+00  9.000E+00
      13     1     5     5     0     0 -7.650700834E+01  2.852217387E+00  6.787225607E+02  6.830269188E+02  0.000000000E+00  0.00000E+00  9.000E+00
     -14     1     5     5     0     0 -2.967973041E+00 -4.052357303E+01  5.662111498E+02  5.676671868E+02  0.000000000E+00  0.00000E+00  9.000E+00
       5     1     4     4   507     0  5.101664454E+01  1.778220911E+01  7.907960496E+00  5.480878871E+01  4.750000000E+00  0.00000E+00  9.000E+00
      -5     1     3     3     0   501 -4.292977316E+00  2.380972777E+00  2.012564115E+03  2.012575707E+03  4.750000000E+00  0.00000E+00  9.000E+00
      21     1     1     2   511   502 -1.392057125E+00  7.322733796E+00 -1.000962143E+01  1.248009513E+01  6.078504936E-07  0.00000E+00  9.000E+00
#rwgt            1          17   8.9548391491699793                1     4081809           0           1           0
<weights>
0.98439E+01
</weights>
</event>
<event>
     15  10001  1.35503E+01  3.19759E+01 -1.00000E+00  1.99997E-01
      21    -1     0     0   507   501  0.000000000E+00  0.000000000E+00  5.590558894E+01  5.590558894E+01  0.000000000E+00  0.00000E+00  9.000E+00
      21    -1     0     0   512   502  0.000000000E+00  0.000000000E+00 -7.966017439E+02  7.966017439E+02  0.000000000E+00  0.00000E+00  9.000E+00
      -6     2     1     2     0   502  3.241595568E+00  1.379603146E+01 -4.915567902E+02  5.210733815E+02  1.723036636E+02  0.00000E+00  9.000E+00
       6     2     1     2   507     0  2.235892508E+01 -3.295513313E+01 -2.171742962E+02  2.862208621E+02  1.821311193E+02  0.00000E+00  9.000E+00
     -24     2     3     3     0     0  2.544703594E+01 -3.014943863E+01 -1.578678334E+02  1.820707693E+02  8.167601815E+01  0.00000E+00  9.000E+00
      24     2     4     4     0     0  5.906099504E+01 -6.487301054E+01 -1.326929233E+02  1.777115674E+02  7.922929172E+01  0.00000E+00  9.000E+00
     -11     1     6     6     0     0  4.842038199E+00 -8.458630642E+00 -8.608918571E+01  8.663914625E+01  0.000000000E+00  0.00000E+00  9.000E+00
      12     1     6     6     0     0  5.421895684E+01 -5.641437990E+01 -4.660373762E+01  9.107242119E+01  2.523185073E-06  0.00000E+00  9.000E+00
      13     1     5     5     0     0  2.178010195E+01 -1.485437508E+01 -1.633123808E+02  1.654265970E+02  0.000000000E+00  0.00000E+00  9.000E+00
     -14     1     5     5     0     0  3.666933997E+00 -1.529506355E+01  5.444547406E+00  1.664417226E+01  7.862392639E-07  0.00000E+00  9.000E+00
       5     1     4     4   513     0 -3.234020302E+01  4.406296056E+01 -6.394880558E+01  8.425820708E+01  4.750000000E+00  0.00000E+00  9.000E+00
      -5     1     3     3     0   511 -2.314255857E+01  4.349401658E+01 -3.341987887E+02  3.378441954E+02  4.750000000E+00  0.00000E+00  9.000E+00
      21     1     1     2   512   501 -2.560052065E+01  1.915910167E+01 -3.196506847E+01  4.521308922E+01  3.371747881E-07  0.00000E+00  9.000E+00
      21     1     4     4   507   513 -4.361866938E+00 -1.214508315E+01 -2.053256733E+01  2.425108758E+01  4.129530925E-07  0.00000E+00  9.000E+00
      21     1     3     3   511   502  9.371181930E-01  4.514535080E-01  5.098318995E-01  1.158416740E+00  2.107342426E-08  0.00000E+00  9.000E+00
#rwgt            1          17   21.648771932684802                1     4092910           0       11011           0
<weights>
0.12730E+02
</weights>
</event>
<event>
     14  10001 -1.35503E+01  2.59964E+01 -1.00000E+00  7.49341E-01
      21    -1     0     0   502   501  0.000000000E+00  0.000000000E+00  1.209342789E+03  1.209342789E+03  0.000000000E+00  0.00000E+00  9.000E+00
      21    -1     0     0   511   502  0.000000000E+00  0.000000000E+00 -3.642640887E+01  3.642640887E+01  0.000000000E+00  0.00000E+00  9.000E+00
      -6     2     1     2     0   501 -7.432239162E+01  3.120740906E+01  6.123754596E+02  6.410561476E+02  1.716145696E+02  0.00000E+00  9.000E+00
       6     2     1     2   507     0  9.708513784E+01 -4.376407127E+01  5.021914592E+02  5.408344778E+02  1.701906366E+02  0.00000E+00  9.000E+00
     -24     2     3     3     0     0 -2.206748977E+01 -6.738827339E-01  5.389413970E+02  5.453372070E+02  8.029577625E+01  0.00000E+00  9.000E+00
      24     2     4     4     0     0  3.451132284E+00 -3.767629481E+01  1.089501015E+02  1.365123847E+02  7.303487549E+01  0.00000E+00  9.000E+00
     -11     1     6     6     0     0 -5.355995100E+00 -5.547830269E+01  5.210912133E+01  7.630130588E+01  0.000000000E+00  0.00000E+00  9.000E+00
      12     1     6     6     0     0  8.807127384E+00  1.780200789E+01  5.684098022E+01  6.021107880E+01  1.168007728E-06  0.00000E+00  9.000E+00
      13     1     5     5     0     0  1.823580019E+01 -2.882615488E+01  2.232801012E+02  2.258705275E+02  0.000000000E+00  0.00000E+00  9.000E+00
     -14     1     5     5     0     0 -4.030328996E+01  2.815227215E+01  3.156612959E+02  3.194666795E+02  5.394796609E-06  0.00000E+00  9.000E+00
       5     1     4     4   512     0  6.955032519E+01 -5.094253258E+00  2.903879294E+02  2.986819566E+02  4.750000000E+00  0.00000E+00  9.000E+00
      -5     1     3     3     0   501 -5.225490184E+01  3.188129179E+01  7.343406257E+01  9.571894054E+01  4.750000000E+00  0.00000E+00  9.000E+00
      21     1     1     2   511   507 -2.276274623E+01  1.255666221E+01  5.834946087E+01  6.387857204E+01  6.743495762E-07  0.00000E+00  9.000E+00
      21     1     4     4   507   512  2.408368037E+01 -9.935232063E-01  1.028534283E+02  1.056401366E+02  0.000000000E+00  0.00000E+00  9.000E+00
#rwgt            1          17  -6.0363908236666282                1     4096367           0         110           0
<weights>
-.13784E+02
</weights>
</event>
<event>
     15  10001  1.35503E+01  7.93405E+01 -1.00000E+00  1.97782E-01
      21    -1     0     0   512   501  0.000000000E+00  0.000000000E+00  5.093232440E+02  5.093232440E+02  0.000000000E+00  0.00000E+00  9.000E+00
      21    -1     0     0   507   502  0.000000000E+00  0.000000000E+00 -2.051533434E+02  2.051533434E+02  0.000000000E+00  0.00000E+00  9.000E+00
      -6     2     1     2     0   501  1.199759223E+02 -1.146502087E+02  6.162574790E+01  2.475587551E+02  1.730569622E+02  0.00000E+00  9.000E+00
       6     2     1     2   507     0 -7.059598676E+01  5.254916507E+01 -1.878601885E+01  1.938091063E+02  1.716503629E+02  0.00000E+00  9.000E+00
     -24     2     3     3     0     0  3.039989751E-01 -8.135390185E+01  1.925255898E+01  1.157677597E+02  8.008098024E+01  0.00000E+00  9.000E+00
      24     2     4     4     0     0 -1.144196662E+01  8.463543084E+01 -2.846616617E+01  1.193962068E+02  7.842867344E+01  0.00000E+00  9.000E+00
     -11     1     6     6     0     0 -1.254499560E+01 -1.284284136E+01 -4.223352892E-01  1.795811394E+01  0.000000000E+00  0.00000E+00  9.000E+00
      12     1     6     6     0     0  1.103028981E+00  9.747827221E+01 -2.804383088E+01  1.014380928E+02  3.708922669E-06  0.00000E+00  9.000E+00
      13     1     5     5     0     0  2.239770013E+00  3.803911605E-01 -2.342977037E+01  2.353965605E+01  0.000000000E+00  0.00000E+00  9.000E+00
     -14     1     5     5     0     0 -1.935771038E+00 -8.173429301E+01  4.268232936E+01  9.222810365E+01  3.053247565E-06  0.00000E+00  9.000E+00
       5     1     4     4   511     0 -4.538542322E+01 -3.480303686E+01  4.625026307E-02  5.739035333E+01  4.750000000E+00  0.00000E+00  9.000E+00
      -5     1     3     3     0   513  6.692111578E+01 -1.544245355E+01  1.919324599E+01  7.146921226E+01  4.750000000E+00  0.00000E+00  9.000E+00
      21     1     1     2   512   502 -4.937993551E+01  6.210104364E+01  2.613301716E+02  2.731087260E+02  7.629394531E-06  0.00000E+00  9.000E+00
      21     1     4     4   507   511 -1.376859692E+01  2.716771088E+00  9.633897051E+00  1.702254619E+01  3.153981341E-07  0.00000E+00  9.000E+00
      21     1     3     3   513   501  5.275080752E+01 -1.785385331E+01  2.317994293E+01  6.032178318E+01  4.768371582E-07  0.00000E+00  9.000E+00
#rwgt            1          17   14.190582731551938                1     4108127           0       11011           0
<weights>
0.22557E+02
</weights>
</event>
<event>
     15  10001  1.35503E+01  2.04974E+01 -1.00000E+00  2.23593E-01
      21    -1     0     0   511   501  0.000000000E+00  0.000000000E+00  2.330838738E+02  2.330838738E+02  0.000000000E+00  0.00000E+00  9.000E+00
      21    -1     0     0   507   502  0.000000000E+00  0.000000000E+00 -2.439520708E+02  2.439520708E+02  0.000000000E+00  0.00000E+00  9.000E+00
      -6     2     1     2     0   501  7.314286153E+01 -5.881560808E+01 -1.052811294E+02  2.225335262E+02  1.721275694E+02  0.00000E+00  9.000E+00
       6     2     1     2   507     0 -9.363982115E+01  5.894849614E+01  1.057588682E+02  2.310743739E+02  1.731100423E+02  0.00000E+00  9.000E+00
     -24     2     3     3     0     0  4.119101626E+01 -6.168522466E+01 -1.372687993E+02  1.754593955E+02  8.025901479E+01  0.00000E+00  9.000E+00
      24     2     4     4     0     0 -3.006900723E+01  9.415030617E+01  8.464614034E+01  1.526639806E+02  7.983042364E+01  0.00000E+00  9.000E+00
     -11     1     6     6     0     0 -4.453175250E+01  5.585556647E+01  1.673355663E+01  7.336847554E+01  0.000000000E+00  0.00000E+00  9.000E+00
      12     1     6     6     0     0  1.446274527E+01  3.829473971E+01  6.791258371E+01  7.929550502E+01  9.536743164E-07  0.00000E+00  9.000E+00
      13     1     5     5     0     0  3.409695983E+01 -6.679225083E+00 -9.268358478E+00  3.595993863E+01  0.000000000E+00  0.00000E+00  9.000E+00
     -14     1     5     5     0     0  7.094056430E+00 -5.500599957E+01 -1.280004408E+02  1.394994569E+02  1.907348633E-06  0.00000E+00  9.000E+00
       5     1     4     4   512     0 -5.250382943E+01 -3.613396179E+01  1.468539094E+01  6.557849119E+01  4.750000000E+00  0.00000E+00  9.000E+00
      -5     1     3     3     0   514  2.605195439E+01  6.864376470E+00  2.427545968E+01  3.657436855E+01  4.750000000E+00  0.00000E+00  9.000E+00
      21     1     1     2   511   502  2.049695962E+01 -1.328880601E-01 -1.134593584E+01  2.342804458E+01  6.529361695E-07  0.00000E+00  9.000E+00
      21     1     4     4   507   512 -1.106698448E+01  9.321517529E-01  6.427336891E+00  1.283190212E+01  2.920019320E-07  0.00000E+00  9.000E+00
      21     1     3     3   514   501  5.899890878E+00 -3.994759889E+00  7.712210221E+00  1.049976216E+01  2.920019320E-07  0.00000E+00  9.000E+00
#rwgt            1          17   18.732489767881422                1     4110885           0       11011           0
<weights>
0.15558E+02
</weights>
</event>
<event>
     15  10001 -1.35503E+01  1.16034E+02 -1.00000E+00  2.91826E-01
      21    -1     0     0   512   501  0.000000000E+00  0.000000000E+00  1.067325288E+02  1.067325288E+02  0.000000000E+00  0.00000E+00  9.000E+00
      21    -1     0     0   507   502  0.000000000E+00  0.000000000E+00 -6.757303392E+02  6.757303392E+02  0.000000000E+00  0.00000E+00  9.000E+00
      -6     2     1     2     0   501  1.991517186E+01  1.263869550E+02 -1.119860075E+02  2.389068353E+02  1.678253068E+02  0.00000E+00  9.000E+00
       6     2     1     2   507     0  2.264122720E+01 -1.843879788E+01 -2.429157556E+02  3.000381295E+02  1.736726817E+02  0.00000E+00  9.000E+00
     -24     2     3     3     0     0  1.821567830E+01  5.146361237E+01  7.565552653E+00  9.750918349E+01  8.043934947E+01  0.00000E+00  9.000E+00
      24     2     4     4     0     0 -1.724101867E+01  5.773015330E+01 -1.456478162E+02  1.694922287E+02  6.232420010E+01  0.00000E+00  9.000E+00
     -11     1     6     6     0     0 -2.557882467E+01  9.741142760E+00 -9.646202655E+01  1.002700788E+02  0.000000000E+00  0.00000E+00  9.000E+00
      12     1     6     6     0     0  8.337806003E+00  4.798901054E+01 -4.918578962E+01  6.922214993E+01  1.784161275E-06  0.00000E+00  9.000E+00
      13     1     5     5     0     0  4.574480817E+00  6.649961229E+01 -1.376334628E+01  6.806286807E+01  0.000000000E+00  0.00000E+00  9.000E+00
     -14     1     5     5     0     0  1.364119748E+01 -1.503599991E+01  2.132889893E+01  2.944631542E+01  5.840038640E-07  0.00000E+00  9.000E+00
       5     1     4     4   513     0  3.812310064E+01 -7.602218600E+01 -9.616661953E+01  1.284652668E+02  4.750000000E+00  0.00000E+00  9.000E+00
      -5     1     3     3     0   511  3.262183697E+00  6.726702805E+01 -1.039797399E+02  1.239751738E+02  4.750000000E+00  0.00000E+00  9.000E+00
      21     1     1     2   512   502 -4.255639906E+01 -1.079481571E+02 -2.140960473E+02  2.435179032E+02  2.697398305E-06  0.00000E+00  9.000E+00
      21     1     3     3   511   501 -1.562690132E+00  7.656314544E+00 -1.557182029E+01  1.742247801E+01  3.371747881E-07  0.00000E+00  9.000E+00
      21     1     4     4   507   513  1.759145229E+00 -1.467651752E-01 -1.101319907E+00  2.080633916E+00  5.161913656E-08  0.00000E+00  9.000E+00
#rwgt            1          17  -119.89643736520792                1     4116310           0       11110           0
<weights>
-.12251E+02
</weights>
</event>
<event>
     15  10001 -1.35503E+01  4.28817E+01 -1.00000E+00  2.89744E-01
       2    -1     0     0   507     0  0.000000000E+00  0.000000000E+00  1.741029876E+03  1.741029876E+03  0.000000000E+00  0.00000E+00  9.000E+00
      21    -1     0     0   501   502  0.000000000E+00  0.000000000E+00 -6.216208046E+02  6.216208046E+02  0.000000000E+00  0.00000E+00  9.000E+00
      -6     2     1     2     0   502 -1.336960594E+02 -1.028641581E+02 -2.704509790E+02  3.624846879E+02  1.726144420E+02  0.00000E+00  9.000E+00
       6     2     1     2   507     0  1.221108914E+02  6.157703314E+01 -2.667968425E+02  3.429542069E+02  1.665359782E+02  0.00000E+00  9.000E+00
     -24     2     3     3     0     0 -2.633911811E+01 -9.846014212E+01 -1.785700568E+02  2.209527266E+02  8.089927981E+01  0.00000E+00  9.000E+00
      24     2     4     4     0     0  1.335457898E+01 -3.824594061E+00 -1.452092882E+02  1.669071249E+02  8.111275280E+01  0.00000E+00  9.000E+00
     -11     1     6     6     0     0  4.748540783E+01 -8.668997404E-01 -9.363869077E+01  1.049943802E+02  0.000000000E+00  0.00000E+00  9.000E+00
      12     1     6     6     0     0 -3.413082885E+01 -2.957694321E+00 -5.157059740E+01  6.191274464E+01  3.234066955E-06  0.00000E+00  9.000E+00
      13     1     5     5     0     0 -2.204807488E+01  4.703692196E+00 -5.791625692E+01  6.214929719E+01  0.000000000E+00  0.00000E+00  9.000E+00
     -14     1     5     5     0     0 -4.291043231E+00 -1.031638343E+02 -1.206537999E+02  1.588034294E+02  3.814697266E-06  0.00000E+00  9.000E+00
       5     1     4     4   511     0  1.068861220E+02  6.534678291E+01 -1.204629458E+02  1.738641105E+02  4.750000000E+00  0.00000E+00  9.000E+00
      -5     1     3     3     0   512 -7.409212876E+01 -4.363720845E+00 -6.235582055E+01  9.705409038E+01  4.750000000E+00  0.00000E+00  9.000E+00
       2     1     1     2   501     0  1.158516801E+01  4.128712501E+01  1.656656892E+03  1.657211786E+03  0.000000000E+00  0.00000E+00  9.000E+00
      21     1     3     3   512   502 -3.326481251E+01 -4.029517683E-02 -2.952510161E+01  4.447787090E+01  1.846782373E-06  0.00000E+00  9.000E+00
      21     1     4     4   507   511  1.870190421E+00  5.484429021E-02 -1.124608514E+00  2.182971465E+00  6.989264130E-08  0.00000E+00  9.000E+00
#rwgt            1          17  -31.686823983828550                1     4123961           0       11110           0
<weights>
-.11003E+02
</weights>
</event>
<event>
     14  10001  1.35503E+01  5.17510E+01 -1.00000E+00  1.40804E-01
      21    -1     0     0   511   501  0.000000000E+00  0.000000000E+00  8.791607941E+02  8.791607941E+02  0.000000000E+00  0.00000E+00  9.000E+00
      21    -1     0     0   507   502  0.000000000E+00  0.000000000E+00 -8.798928836E+01  8.798928836E+01  0.000000000E+00  0.00000E+00  9.000E+00
      -6     2     1     2     0   501 -9.195878903E+01  7.316824177E+00  6.212653138E+02  6.522728559E+02  1.760094699E+02  0.00000E+00  9.000E+00
       6     2     1     2   507     0  1.380569621E+02 -3.083536687E+01  1.412906502E+02  2.557416820E+02  1.594685406E+02  0.00000E+00  9.000E+00
     -24     2     3     3     0     0 -4.103381540E+01 -5.297390634E+01  3.084391285E+02  3.230211093E+02  6.868720604E+01  0.00000E+00  9.000E+00
      24     2     4     4     0     0  9.246126093E+01 -3.944810021E+01  1.613565831E+02  2.049642136E+02  7.661034241E+01  0.00000E+00  9.000E+00
     -11     1     6     6     0     0  1.654078580E+01 -4.645130148E+01  5.208432704E+01  7.172236839E+01  0.000000000E+00  0.00000E+00  9.000E+00
      12     1     6     6     0     0  7.592047513E+01  7.003201263E+00  1.092722561E+02  1.332418452E+02  1.348699152E-06  0.00000E+00  9.000E+00
      13     1     5     5     0     0 -5.500869306E+01 -4.572005049E+01  2.903888153E+02  2.990684594E+02  0.000000000E+00  0.00000E+00  9.000E+00
     -14     1     5     5     0     0  1.397487767E+01 -7.253855858E+00  1.805031321E+01  2.395264991E+01  3.371747881E-07  0.00000E+00  9.000E+00
       5     1     4     4   507     0  4.559570113E+01  8.612733346E+00 -2.006593286E+01  5.077746841E+01  4.750000000E+00  0.00000E+00  9.000E+00
      -5     1     3     3     0   513 -3.962573539E+01  5.318866567E+01  3.079426805E+02  3.150404578E+02  4.750000000E+00  0.00000E+00  9.000E+00
      21     1     1     2   511   502 -4.609817303E+01  2.351854269E+01  2.861554162E+01  5.913554455E+01  1.815741803E-06  0.00000E+00  9.000E+00
      21     1     3     3   513   501 -1.129923824E+01  7.102064847E+00  4.883504800E+00  1.421128879E+01  4.986882368E-07  0.00000E+00  9.000E+00
#rwgt            1          17   4.9288998979098917                1     4134115           0         111           0
<weights>
-.23776E+02
</weights>
</event>
<event>
     15  10001  1.35503E+01  2.06125E+01 -1.00000E+00  5.39422E-01
      21    -1     0     0   511   501  0.000000000E+00  0.000000000E+00  4.331626726E+01  4.331626726E+01  0.000000000E+00  0.00000E+00  9.000E+00
       2    -1     0     0   507     0  0.000000000E+00  0.000000000E+00 -1.418108911E+03  1.418108911E+03  0.000000000E+00  0.00000E+00  9.000E+00
      -6     2     1     2     0   501 -7.756315856E+00 -2.088119427E+01 -9.892934438E+02  1.005805365E+03  1.801297553E+02  0.00000E+00  9.000E+00
       6     2     1     2   507     0 -1.233728700E+01  1.628542565E+01 -3.977425658E+02  4.316453699E+02  1.664366334E+02  0.00000E+00  9.000E+00
     -24     2     3     3     0     0  4.448288418E+01  8.669004117E+00 -8.362994785E+02  8.413350828E+02  7.996264870E+01  0.00000E+00  9.000E+00
      24     2     4     4     0     0 -2.510592614E+01  4.670658880E+01 -3.525587673E+02  3.655158596E+02  8.057509732E+01  0.00000E+00  9.000E+00
     -11     1     6     6     0     0 -3.752046019E+01  1.248736548E+01 -6.818729930E+01  7.882402562E+01  0.000000000E+00  0.00000E+00  9.000E+00
      12     1     6     6     0     0  1.241453405E+01  3.421922332E+01 -2.843714680E+02  2.866918340E+02  0.000000000E+00  0.00000E+00  9.000E+00
      13     1     5     5     0     0  3.760188125E+01 -3.240462697E+01 -5.031726242E+02  5.056151215E+02  0.000000000E+00  0.00000E+00  9.000E+00
     -14     1     5     5     0     0  6.881002927E+00  4.107363108E+01 -3.331268543E+02  3.357199613E+02  3.814697266E-06  0.00000E+00  9.000E+00
       5     1     4     4   512     0  8.748429619E+00 -3.429130541E+01 -4.804312472E+01  5.985927648E+01  4.750000000E+00  0.00000E+00  9.000E+00
      -5     1     3     3     0   513 -4.895572625E+01 -2.817445336E+01 -1.461159301E+02  1.567255260E+02  4.750000000E+00  0.00000E+00  9.000E+00
      21     1     4     4   507   512  4.020209525E+00  3.870142255E+00  2.859326151E+00  6.270233787E+00  6.433437212E-07  0.00000E+00  9.000E+00
       2     1     1     2   511     0  2.009360285E+01  4.595768619E+00  1.224336564E+01  2.397444404E+01  0.000000000E+00  0.00000E+00  9.000E+00
      21     1     3     3   513   501 -3.283473787E+00 -1.375745025E+00 -6.878035154E+00  7.744755778E+00  0.000000000E+00  0.00000E+00  9.000E+00
#rwgt            1           6  0.84879586180243005                1     4142102           0      100111           0
<weights>
0.12632E+02
</weights>
</event>
<event>
     15  10001  1.35503E+01  2.47736E+02 -1.00000E+00  2.45961E-01
      21    -1     0     0   507   511  0.000000000E+00  0.000000000E+00  9.669970666E+02  9.669970666E+02  0.000000000E+00  0.00000E+00  9.000E+00
      21    -1     0     0   501   502  0.000000000E+00  0.000000000E+00 -3.380093473E+02  3.380093473E+02  0.000000000E+00  0.00000E+00  9.000E+00
      -6     2     1     2     0   502 -1.622749986E+02  2.808522428E+02  5.342821538E+02  6.485094487E+02  1.729043888E+02  0.00000E+00  9.000E+00
       6     2     1     2   507     0 -8.538104367E+01 -2.871593412E+02  1.855855516E+02  3.926173210E+02  1.730778841E+02  0.00000E+00  9.000E+00
     -24     2     3     3     0     0 -8.891459023E+01  2.547103364E+02  4.642569909E+02  5.429434668E+02  8.043565545E+01  0.00000E+00  9.000E+00
      24     2     4     4     0     0 -9.190557850E+00 -4.756859078E+01 -5.075254301E+00  7.595578608E+01  5.827766340E+01  0.00000E+00  9.000E+00
     -11     1     6     6     0     0 -1.859268610E+01 -3.886232630E+01  2.022754573E+01  4.759329772E+01  0.000000000E+00  0.00000E+00  9.000E+00
      12     1     6     6     0     0  9.402128248E+00 -8.706264486E+00 -2.530280003E+01  2.836248837E+01  2.654916936E-06  0.00000E+00  9.000E+00
      13     1     5     5     0     0 -2.331698193E+01  1.044854843E+02  2.590686565E+02  2.803167259E+02  0.000000000E+00  0.00000E+00  9.000E+00
     -14     1     5     5     0     0 -6.559760830E+01  1.502248522E+02  2.051883345E+02  2.626267409E+02  7.629394531E-06  0.00000E+00  9.000E+00
       5     1     4     4   512     0 -5.621259602E+01 -2.061128914E+02  1.572143480E+02  2.652947298E+02  4.750000000E+00  0.00000E+00  9.000E+00
      -5     1     3     3     0   514 -6.605293657E+01  2.630548803E+01  5.996434008E+01  9.313030501E+01  4.750000000E+00  0.00000E+00  9.000E+00
      21     1     1     2   501   511  2.476560423E+02  6.307098368E+00 -9.087998607E+01  2.638796442E+02  7.008046368E-06  0.00000E+00  9.000E+00
      21     1     4     4   507   512 -1.997788980E+01 -3.347785898E+01  3.344645787E+01  5.136680511E+01  6.743495762E-07  0.00000E+00  9.000E+00
      21     1     3     3   514   502 -7.307471826E+00 -1.635816770E-01  1.006082282E+01  1.243567688E+01  1.192092896E-07  0.00000E+00  9.000E+00
#rwgt            1          17   21.687429057952386                1     4142861           0       11011           0
<weights>
0.15302E+02
</weights>
</event>
<event>
     15  10001  1.35503E+01  1.04816E+02 -1.00000E+00  2.00979E-01
      21    -1     0     0   502   501  0.000000000E+00  0.000000000E+00  7.590529407E+02  7.590529407E+02  0.000000000E+00  0.00000E+00  9.000E+00
      21    -1     0     0   512   502  0.000000000E+00  0.000000000E+00 -1.323505571E+02  1.323505571E+02  0.000000000E+00  0.00000E+00  9.000E+00
      -6     2     1     2     0   501 -1.016303620E+01 -3.866511619E+01  3.013885307E+02  3.494291373E+02  1.722422626E+02  0.00000E+00  9.000E+00
       6     2     1     2   507     0  5.089306973E+01 -5.791319092E+01 -1.087432553E+01  1.898255334E+02  1.731226154E+02  0.00000E+00  9.000E+00
     -24     2     3     3     0     0 -2.545545125E+01 -2.807723411E+01  6.801911876E+01  1.133203318E+02  8.233216872E+01  0.00000E+00  9.000E+00
      24     2     4     4     0     0  5.317523721E+01 -1.009254651E+02 -2.341976284E+01  1.429283473E+02  8.286417682E+01  0.00000E+00  9.000E+00
     -11     1     6     6     0     0  3.471867573E+01 -6.989909384E+01 -5.458122863E+01  9.523854410E+01  0.000000000E+00  0.00000E+00  9.000E+00
      12     1     6     6     0     0  1.845656148E+01 -3.102637126E+01  3.116146578E+01  4.768980315E+01  1.685873940E-06  0.00000E+00  9.000E+00
      13     1     5     5     0     0  8.068765515E+00 -5.070656738E+00  7.185162564E+01  7.248084329E+01  0.000000000E+00  0.00000E+00  9.000E+00
     -14     1     5     5     0     0 -3.352421676E+01 -2.300657737E+01 -3.832506878E+00  4.083948850E+01  1.071226642E-06  0.00000E+00  9.000E+00
       5     1     4     4   513     0 -4.199338344E+00  4.237946754E+01  1.309049518E+01  4.480599598E+01  4.750000000E+00  0.00000E+00  9.000E+00
      -5     1     3     3     0   511  1.851392621E+01 -4.299148902E+00  2.209753236E+02  2.218420706E+02  4.750000000E+00  0.00000E+00  9.000E+00
      21     1     1     2   512   507 -4.073003353E+01  9.657830711E+01  3.361881785E+02  3.521488271E+02  3.814697266E-06  0.00000E+00  9.000E+00
      21     1     3     3   511   501 -3.221511154E+00 -6.288733183E+00  1.239408835E+01  1.426673492E+01  2.920019320E-07  0.00000E+00  9.000E+00
      21     1     4     4   507   513  1.917170867E+00  6.328066399E-01 -5.450578670E-01  2.091190201E+00  5.372690075E-08  0.00000E+00  9.000E+00
#rwgt            1          17   4.5527920755098457                1     4151816           0       11110           0
<weights>
0.10480E+02
</weights>
</event>
<event>
     13  10001  1.35503E+01  2.53096E+02 -1.00000E+00  1.08048E-01
      21    -1     0     0   507   501  0.000000000E+00  0.000000000E+00  1.859055750E+02  1.859055750E+02  0.000000000E+00  0.00000E+00  9.000E+00
       1    -1     0     0   501     0  0.000000000E+00  0.000000000E+00 -2.144743798E+03  2.144743798E+03  0.000000000E+00  0.00000E+00  9.000E+00
      -6     2     1     2     0   502  4.844111989E+01  1.533446221E+02 -9.636181829E+01  2.548777140E+02  1.726729100E+02  0.00000E+00  9.000E+00
       6     2     1     2   507     0  1.767110512E+02 -2.689487170E+02 -2.474313297E+02  4.410152854E+02  1.723717236E+02  0.00000E+00  9.000E+00
     -24     2     3     3     0     0  8.808308598E+01  8.535989740E+01 -1.056713639E+02  1.754885560E+02  6.771155017E+01  0.00000E+00  9.000E+00
      24     2     4     4     0     0  3.926921299E+01 -1.719228862E+02 -1.154167335E+02  2.271118333E+02  8.461213017E+01  0.00000E+00  9.000E+00
     -11     1     6     6     0     0  5.538197355E+01 -1.388557362E+02 -6.106716064E+01  1.614846017E+02  0.000000000E+00  0.00000E+00  9.000E+00
      12     1     6     6     0     0 -1.611276057E+01 -3.306714994E+01 -5.434957281E+01  6.562723156E+01  1.168007728E-06  0.00000E+00  9.000E+00
      13     1     5     5     0     0  6.282625330E+01  9.165852468E+01 -9.848415453E+01  1.484841808E+02  0.000000000E+00  0.00000E+00  9.000E+00
     -14     1     5     5     0     0  2.525683268E+01 -6.298627281E+00 -7.187209329E+00  2.700437521E+01  3.862822472E-07  0.00000E+00  9.000E+00
       5     1     4     4   507     0  1.374418382E+02 -9.702583078E+01 -1.320145962E+02  2.139034522E+02  4.750000000E+00  0.00000E+00  9.000E+00
      -5     1     3     3     0   502 -3.964196609E+01  6.798472466E+01  9.309545566E+00  7.938915796E+01  4.750000000E+00  0.00000E+00  9.000E+00
       1     1     1     2   502     0 -2.251521711E+02  1.156040949E+02 -1.615045075E+03  1.634756373E+03  0.000000000E+00  0.00000E+00  9.000E+00
#rwgt            2          86  0.26911699492374763                1     4173821           0           1           0
<weights>
0.13550E+02
</weights>
</event>
<event>
     15  10001  1.35503E+01  2.74997E+01 -1.00000E+00  1.73920E-01
      21    -1     0     0   511   501  0.000000000E+00  0.000000000E+00  2.441731778E+02  2.441731778E+02  0.000000000E+00  0.00000E+00  9.000E+00
      21    -1     0     0   501   502  0.000000000E+00  0.000000000E+00 -3.494347300E+02  3.494347300E+02  0.000000000E+00  0.00000E+00  9.000E+00
      -6     2     1     2     0   502 -1.703118103E+02 -5.849061249E+01 -1.720994625E+02  2.852468913E+02  1.389974802E+02  0.00000E+00  9.000E+00
       6     2     1     2   507     0  1.977901684E+02  5.740679989E+01  4.352526652E+01  2.723094677E+02  1.727469420E+02  0.00000E+00  9.000E+00
     -24     2     3     3     0     0 -1.363111449E+02 -1.284369941E+01 -8.481047015E+01  1.802811290E+02  8.101099178E+01  0.00000E+00  9.000E+00
      24     2     4     4     0     0  1.430023561E+02  1.045932357E+02  2.292815736E+01  1.964939445E+02  8.182145804E+01  0.00000E+00  9.000E+00
     -11     1     6     6     0     0  8.363941399E+01  9.942317272E+01  3.734770423E+01  1.351864263E+02  0.000000000E+00  0.00000E+00  9.000E+00
      12     1     6     6     0     0  5.936294215E+01  5.170062993E+00 -1.441954686E+01  6.130751816E+01  2.600839642E-06  0.00000E+00  9.000E+00
      13     1     5     5     0     0 -3.872376586E+01 -4.010811522E+01 -4.409860286E+01  7.108359673E+01  0.000000000E+00  0.00000E+00  9.000E+00
     -14     1     5     5     0     0 -9.758737903E+01  2.726441581E+01 -4.071186729E+01  1.091975323E+02  3.662655710E-06  0.00000E+00  9.000E+00
       5     1     4     4   514     0  5.266225569E+01 -4.604980250E+01  1.825542274E+01  7.245495459E+01  4.750000000E+00  0.00000E+00  9.000E+00
      -5     1     3     3     0   512 -1.722364711E+01 -1.488716988E+01 -3.530548514E+01  4.227672679E+01  4.750000000E+00  0.00000E+00  9.000E+00
      21     1     1     2   511   507 -2.747835813E+01  1.083812605E+00  2.331264381E+01  3.605154888E+01  1.118282261E-06  0.00000E+00  9.000E+00
      21     1     3     3   512   502 -1.677701826E+01 -3.075974321E+01 -5.198350724E+01  6.268903548E+01  1.348699152E-06  0.00000E+00  9.000E+00
      21     1     4     4   507   514  2.125556552E+00 -1.136633324E+00  2.341686414E+00  3.360568587E+00  5.960464478E-08  0.00000E+00  9.000E+00
#rwgt            1          17   1.3794884608567977                1     4175747           0       11110           0
<weights>
0.13701E+02
</weights>
</event>
<event>
     15  10001 -1.35503E+01  3.53145E+01 -1.00000E+00  3.24460E-01
      21    -1     0     0   502   512  0.000000000E+00  0.000000000E+00  1.190617966E+03  1.190617966E+03  0.000000000E+00  0.00000E+00  9.000E+00
      21    -1     0     0   507   502  0.000000000E+00  0.000000000E+00 -5.587178209E+02  5.587178209E+02  0.000000000E+00  0.00000E+00  9.000E+00
      -6     2     1     2     0   501 -1.517102276E+02  1.224446113E+02  3.387945508E+02  4.271087140E+02  1.721378226E+02  0.00000E+00  9.000E+00
       6     2     1     2   507     0  1.789156271E+02 -9.992832996E+01  7.846006499E+02  8.294649533E+02  1.744060097E+02  0.00000E+00  9.000E+00
     -24     2     3     3     0     0 -1.602197559E+02  1.315940474E+02  2.418375214E+02  3.288482656E+02  8.166046497E+01  0.00000E+00  9.000E+00
      24     2     4     4     0     0  1.630665071E+02 -4.843254228E+01  7.095696600E+02  7.369015153E+02  1.029482583E+02  0.00000E+00  9.000E+00
     -11     1     6     6     0     0  3.739977837E+01 -6.196810178E+01  2.496964775E+02  2.599752295E+02  0.000000000E+00  0.00000E+00  9.000E+00
      12     1     6     6     0     0  1.256667287E+02  1.353555950E+01  4.598731825E+02  4.769262858E+02  7.629394531E-06  0.00000E+00  9.000E+00
      13     1     5     5     0     0 -3.708636485E+01  3.927470549E+01  1.747065369E+01  5.677256987E+01  0.000000000E+00  0.00000E+00  9.000E+00
     -14     1     5     5     0     0 -1.231333910E+02  9.231934195E+01  2.243668677E+02  2.720756957E+02  3.814697266E-06  0.00000E+00  9.000E+00
       5     1     4     4   513     0  1.159221152E+01 -3.814297514E+01  5.721894433E+01  6.989875543E+01  4.750000000E+00  0.00000E+00  9.000E+00
      -5     1     3     3     0   511  6.671051566E+00 -8.530866240E+00  9.388808884E+01  9.462988076E+01  4.750000000E+00  0.00000E+00  9.000E+00
      21     1     1     2   501   512 -2.720539950E+01 -2.251628131E+01 -4.914950557E+02  4.927621195E+02  5.394796609E-06  0.00000E+00  9.000E+00
      21     1     3     3   511   501  1.838476721E+00 -6.185699276E-01  3.068940608E+00  3.630567705E+00  8.429369702E-08  0.00000E+00  9.000E+00
      21     1     4     4   507   513  4.256908465E+00 -1.335281254E+01  1.781204557E+01  2.266468265E+01  4.129530925E-07  0.00000E+00  9.000E+00
#rwgt            1          17  -80.828664751847398                1     4183235           0       11110           0
<weights>
-.13678E+02
</weights>
</event>
<event>
     14  10001 -1.35503E+01  4.52122E+01 -1.00000E+00  7.52226E-01
      21    -1     0     0   502   511  0.000000000E+00  0.000000000E+00  1.757118326E+03  1.757118326E+03  0.000000000E+00  0.00000E+00  9.000E+00
      21    -1     0     0   507   502  0.000000000E+00  0.000000000E+00 -1.635150697E+02  1.635150697E+02  0.000000000E+00  0.00000E+00  9.000E+00
      -6     2     1     2     0   501  2.965748211E+02  1.611968983E+02  1.432978957E+03  1.482187819E+03  1.717875842E+02  0.00000E+00  9.000E+00
       6     2     1     2   507     0 -2.583964525E+02 -1.854157093E+02  1.537528532E+02  3.927142376E+02  1.715716194E+02  0.00000E+00  9.000E+00
     -24     2     3     3     0     0  1.010458813E+02  1.138201477E+02  7.848272797E+02  8.035131675E+02  8.071093675E+01  0.00000E+00  9.000E+00
      24     2     4     4     0     0 -1.695372769E+02 -1.472239687E+02  3.929880294E+01  2.423762004E+02  8.236529240E+01  0.00000E+00  9.000E+00
     -11     1     6     6     0     0 -1.108272921E+02 -1.415289708E+02  2.332155910E+01  1.812650915E+02  0.000000000E+00  0.00000E+00  9.000E+00
      12     1     6     6     0     0 -5.870998479E+01 -5.694997837E+00  1.597724383E+01  6.111110893E+01  2.723612704E-06  0.00000E+00  9.000E+00
      13     1     5     5     0     0  3.584273396E+01 -4.835936374E+00  1.373697979E+02  1.420512205E+02  0.000000000E+00  0.00000E+00  9.000E+00
     -14     1     5     5     0     0  6.520314737E+01  1.186560841E+02  6.474574818E+02  6.614619471E+02  1.705984480E-05  0.00000E+00  9.000E+00
       5     1     4     4   512     0 -8.686423839E+01 -3.829062577E+01  1.137187721E+02  1.482096136E+02  4.750000000E+00  0.00000E+00  9.000E+00
      -5     1     3     3     0   501  1.955289398E+02  4.737675058E+01  6.481516777E+02  6.786746515E+02  4.750000000E+00  0.00000E+00  9.000E+00
      21     1     1     2   501   511 -3.817836861E+01  2.421881100E+01  6.871446052E+00  4.573133944E+01  3.674277069E-07  0.00000E+00  9.000E+00
      21     1     4     4   507   512 -1.994937234E+00  9.888514807E-02  7.352781277E-01  2.128423540E+00  3.650024150E-08  0.00000E+00  9.000E+00
#rwgt            1          17  -2.9848552677310400                1     4193318           0         110           0
<weights>
0.69855E+01
</weights>
</event>
<event>
     15  10001  1.35503E+01  1.08243E+02 -1.00000E+00  1.61457E-01
      21    -1     0     0   502   501  0.000000000E+00  0.000000000E+00  9.391842656E+02  9.391842656E+02  0.000000000E+00  0.00000E+00  9.000E+00
      -1    -1     0     0     0   502  0.000000000E+00  0.000000000E+00 -3.093259934E+02  3.093259934E+02  0.000000000E+00  0.00000E+00  9.000E+00
      -6     2     1     2     0   501 -1.262959738E+01 -2.435464369E+01  8.215028873E+02  8.805332180E+02  3.157833099E+02  0.00000E+00  9.000E+00
       6     2     1     2   507     0 -4.908369697E+01 -6.457216580E+01 -6.468716115E+01  2.011396852E+02  1.723193845E+02  0.00000E+00  9.000E+00
     -24     2     3     3     0     0 -1.665518639E+00 -7.651928870E+00  2.741512508E+01  8.491973676E+01  7.999029091E+01  0.00000E+00  9.000E+00
      24     2     4     4     0     0  1.473754959E+01 -3.262867966E+01  4.079882511E+01  7.234756685E+01  4.783095435E+01  0.00000E+00  9.000E+00
     -11     1     6     6     0     0  1.960097377E+01  3.529939359E-01  3.256006860E+01  3.800632638E+01  0.000000000E+00  0.00000E+00  9.000E+00
      12     1     6     6     0     0 -4.863424184E+00 -3.298167360E+01  8.238756506E+00  3.434124047E+01  9.078709013E-07  0.00000E+00  9.000E+00
      13     1     5     5     0     0  2.719074779E+01 -2.708946047E+01 -3.281011812E+00  3.852195052E+01  0.000000000E+00  0.00000E+00  9.000E+00
     -14     1     5     5     0     0 -2.885626643E+01  1.943753160E+01  3.069613690E+01  4.639778623E+01  7.539457465E-07  0.00000E+00  9.000E+00
       5     1     4     4   512     0 -2.544971712E+01 -2.219501339E+01 -4.409903533E+01  5.574579928E+01  4.750000000E+00  0.00000E+00  9.000E+00
      -5     1     3     3     0   511 -1.968661896E+01 -2.741038860E+01  6.404975602E+02  6.414036011E+02  4.750000000E+00  0.00000E+00  9.000E+00
      -1     1     1     2     0   507  6.171329434E+01  8.892680949E+01 -1.269574539E+02  1.668373557E+02  0.000000000E+00  0.00000E+00  9.000E+00
      21     1     3     3   511   501  8.722540222E+00  1.070767378E+01  1.535902020E+02  1.542098802E+02  3.814697266E-06  0.00000E+00  9.000E+00
      21     1     4     4   507   512 -3.837152943E+01 -9.748472741E+00 -6.138695093E+01  7.304631911E+01  9.536743164E-07  0.00000E+00  9.000E+00
#rwgt            1          17   632.33882612263631                1     4203467           0       11110           0
<weights>
0.11713E+02
</weights>
</event>
<event>
     13  10001  1.35503E+01  1.66655E+02 -1.00000E+00  1.14610E-01
      21    -1     0     0   502   501  0.000000000E+00  0.000000000E+00  1.651154054E+03  1.651154054E+03  0.000000000E+00  0.00000E+00  9.000E+00
      21    -1     0     0   511   502  0.000000000E+00  0.000000000E+00 -1.653927847E+02  1.653927847E+02  0.000000000E+00  0.00000E+00  9.000E+00
      -6     2     1     2     0   501  1.683384335E+02 -9.400296503E+01  1.212350768E+03  1.242911160E+03  1.945748731E+02  0.00000E+00  9.000E+00
       6     2     1     2   507     0 -1.346165824E+02  2.572110631E+02  1.797199651E+02  3.824500019E+02  1.723066536E+02  0.00000E+00  9.000E+00
     -24     2     3     3     0     0  3.180533129E+01 -1.061945979E+01  7.178191005E+02  7.231244444E+02  8.074867852E+01  0.00000E+00  9.000E+00
      24     2     4     4     0     0 -7.111623178E+01  5.410132210E+01  1.131879918E+02  1.594367122E+02  6.800053110E+01  0.00000E+00  9.000E+00
     -11     1     6     6     0     0 -8.203851966E+01  4.198911182E+01  1.087219625E+02  1.425267320E+02  0.000000000E+00  0.00000E+00  9.000E+00
      12     1     6     6     0     0  1.092228788E+01  1.211221028E+01  4.466029295E+00  1.690998013E+01  5.196212463E-07  0.00000E+00  9.000E+00
      13     1     5     5     0     0  9.570967562E+00 -4.526163988E+01  3.846614626E+02  3.874334269E+02  0.000000000E+00  0.00000E+00  9.000E+00
     -14     1     5     5     0     0  2.223436373E+01  3.464218009E+01  3.331576379E+02  3.356910175E+02  6.607249480E-06  0.00000E+00  9.000E+00
       5     1     4     4   507     0 -6.350035064E+01  2.031097410E+02  6.653197332E+01  2.230132898E+02  4.750000000E+00  0.00000E+00  9.000E+00
      -5     1     3     3     0   501  1.365331023E+02 -8.338350524E+01  4.945316674E+02  5.197867154E+02  4.750000000E+00  0.00000E+00  9.000E+00
      21     1     1     2   511   507 -3.372185112E+01 -1.632080981E+02  9.369053678E+01  1.911856773E+02  1.348699152E-06  0.00000E+00  9.000E+00
#rwgt            2         113  0.34785573978527107                1     4215390           0           1           0
<weights>
0.13550E+02
</weights>
</event>
<event>
     15  10001  1.35503E+01  3.44055E+00 -1.00000E+00  2.24369E-01
      21    -1     0     0   507   501  0.000000000E+00  0.000000000E+00  7.354644106E+01  7.354644106E+01  0.000000000E+00  0.00000E+00  9.000E+00
       2    -1     0     0   501     0  0.000000000E+00  0.000000000E+00 -8.840233468E+02  8.840233468E+02  0.000000000E+00  0.00000E+00  9.000E+00
      -6     2     1     2     0   502  1.641219131E+01 -5.273304143E+01 -1.891820092E+02  2.612264208E+02  1.714621725E+02  0.00000E+00  9.000E+00
       6     2     1     2   507     0 -1.973286965E+01  5.363330282E+01 -1.827477656E+02  2.577827402E+02  1.725957068E+02  0.00000E+00  9.000E+00
     -24     2     3     3     0     0  2.420757893E+01 -9.063023174E+01 -8.762797851E+01  1.519583646E+02  8.131934675E+01  0.00000E+00  9.000E+00
      24     2     4     4     0     0 -3.587734857E+00 -1.006239775E+01 -1.367201075E+02  1.601828767E+02  8.277706512E+01  0.00000E+00  9.000E+00
     -11     1     6     6     0     0 -2.362909376E+01  2.752161542E+01 -3.733219470E+01  5.205253259E+01  0.000000000E+00  0.00000E+00  9.000E+00
      12     1     6     6     0     0  2.004135890E+01 -3.758401317E+01 -9.938791278E+01  1.081303441E+02  1.907348633E-06  0.00000E+00  9.000E+00
      13     1     5     5     0     0 -3.668309556E+00 -3.826052530E+01 -8.417048880E+01  9.253105142E+01  0.000000000E+00  0.00000E+00  9.000E+00
     -14     1     5     5     0     0  2.787588849E+01 -5.236970643E+01 -3.457489711E+00  5.942731313E+01  1.709417152E-06  0.00000E+00  9.000E+00
       5     1     4     4   512     0 -7.235613101E+00  5.182010701E+00  1.133629179E+01  1.517502367E+01  4.750000000E+00  0.00000E+00  9.000E+00
      -5     1     3     3     0   513 -6.272971062E+00  2.601649257E+01 -8.145998770E+01  8.587490988E+01  4.750000000E+00  0.00000E+00  9.000E+00
      21     1     4     4   507   512 -8.909521691E+00  5.851368986E+01 -5.736394988E+01  8.242483985E+01  1.784161275E-06  0.00000E+00  9.000E+00
      21     1     3     3   513   502 -1.522416556E+00  1.188069774E+01 -2.009404300E+01  2.339314633E+01  3.371747881E-07  0.00000E+00  9.000E+00
       2     1     1     2   502     0  3.320678335E+00 -9.002613878E-01 -4.385471310E+02  4.385606269E+02  0.000000000E+00  0.00000E+00  9.000E+00
#rwgt            1          17   18.814526147626303                1     4216645           0      101101           0
<weights>
0.15594E+02
</weights>
</event>
<event>
     15  10001  1.35503E+01  2.29478E+01 -1.00000E+00  1.79138E-01
      21    -1     0     0   502   501  0.000000000E+00  0.000000000E+00  5.039637285E+02  5.039637285E+02  0.000000000E+00  0.00000E+00  9.000E+00
      -2    -1     0     0     0   502  0.000000000E+00  0.000000000E+00 -2.487045236E+02  2.487045236E+02  0.000000000E+00  0.00000E+00  9.000E+00
      -6     2     1     2     0   501  1.296291141E+02 -1.245698906E+02  2.809237403E+02  3.743125749E+02  1.699128924E+02  0.00000E+00  9.000E+00
       6     2     1     2   507     0 -1.068129188E+02  1.221156866E+02  9.557660298E+01  2.549619353E+02  1.718995662E+02  0.00000E+00  9.000E+00
     -24     2     3     3     0     0  7.188412386E+01 -1.285554049E+02  1.476384687E+02  2.232017960E+02  7.954938651E+01  0.00000E+00  9.000E+00
      24     2     4     4     0     0 -1.168566415E+02  9.376034216E+01  1.250015333E+02  2.116150104E+02  8.190880834E+01  0.00000E+00  9.000E+00
     -11     1     6     6     0     0 -6.197251419E+01  9.533634032E+01  9.941366170E+01  1.510386918E+02  0.000000000E+00  0.00000E+00  9.000E+00
      12     1     6     6     0     0 -5.488412729E+01 -1.575998165E+00  2.558787163E+01  6.057631858E+01  2.360223517E-06  0.00000E+00  9.000E+00
      13     1     5     5     0     0  8.233280987E+01 -9.609738965E+01  1.391044744E+02  1.880517341E+02  0.000000000E+00  0.00000E+00  9.000E+00
     -14     1     5     5     0     0 -1.044868601E+01 -3.245801529E+01  8.533994272E+00  3.515006194E+01  1.651812370E-06  0.00000E+00  9.000E+00
       5     1     4     4   512     0  4.323775046E+00  1.140136993E+01 -7.630110946E+00  1.514818009E+01  4.750000000E+00  0.00000E+00  9.000E+00
      -5     1     3     3     0   511  4.754785442E+01  1.360284645E+01  1.257233251E+02  1.351841443E+02  4.750000000E+00  0.00000E+00  9.000E+00
      -2     1     1     2     0   507 -2.281619529E+01  2.454204036E+00 -1.212411385E+02  1.233937419E+02  0.000000000E+00  0.00000E+00  9.000E+00
      21     1     3     3   511   501  1.019713580E+01 -9.617332136E+00  7.561946535E+00  1.592663465E+01  3.264680848E-07  0.00000E+00  9.000E+00
      21     1     4     4   507   512  5.719947643E+00  1.695397450E+01 -2.179481941E+01  2.819874475E+01  1.685873940E-06  0.00000E+00  9.000E+00
#rwgt            1          17   13.074977487670171                1     4222701           0       11110           0
<weights>
0.10704E+02
</weights>
</event>
<event>
     15  10001  1.35503E+01  1.03372E+02 -1.00000E+00  1.53242E-01
      21    -1     0     0   511   501  0.000000000E+00  0.000000000E+00  9.511655063E+02  9.511655063E+02  0.000000000E+00  0.00000E+00  9.000E+00
      21    -1     0     0   501   502  0.000000000E+00  0.000000000E+00 -5.156491902E+02  5.156491902E+02  0.000000000E+00  0.00000E+00  9.000E+00
      -6     2     1     2     0   502  2.380538114E+01  7.841021043E+01 -2.646935850E+02  3.332950072E+02  1.852242171E+02  0.00000E+00  9.000E+00
       6     2     1     2   507     0 -4.220964090E+01 -1.801306319E+02 -1.379963886E+02  2.889632703E+02  1.738622156E+02  0.00000E+00  9.000E+00
     -24     2     3     3     0     0 -1.769604938E+01  1.012420169E+02 -2.436413032E+02  2.761777771E+02  7.968678549E+01  0.00000E+00  9.000E+00
      24     2     4     4     0     0 -8.798135992E+01 -1.632450856E+02 -9.824772155E+01  2.241393733E+02  7.871573033E+01  0.00000E+00  9.000E+00
     -11     1     6     6     0     0 -1.685800037E+01 -1.093805259E+02 -6.819410841E+01  1.299951078E+02  0.000000000E+00  0.00000E+00  9.000E+00
      12     1     6     6     0     0 -7.112335955E+01 -5.386455967E+01 -3.005361314E+01  9.414426549E+01  1.651812370E-06  0.00000E+00  9.000E+00
      13     1     5     5     0     0  3.148883345E+01  3.420529540E+01 -7.704684895E+01  8.998758692E+01  0.000000000E+00  0.00000E+00  9.000E+00
     -14     1     5     5     0     0 -4.918488284E+01  6.703672152E+01 -1.665944543E+02  1.861901902E+02  5.722045898E-06  0.00000E+00  9.000E+00
       5     1     4     4   513     0  4.504673170E+01 -1.616439599E+01 -4.100654666E+01  6.320280930E+01  4.750000000E+00  0.00000E+00  9.000E+00
      -5     1     3     3     0   512  2.368262456E+01 -8.308440567E+00 -2.256075592E+01  3.408001024E+01  4.750000000E+00  0.00000E+00  9.000E+00
      21     1     1     2   511   507  1.840425976E+01  1.017204215E+02  8.382062897E+02  8.445564191E+02  1.078959322E-05  0.00000E+00  9.000E+00
      21     1     3     3   512   502  1.781880596E+01 -1.452336592E+01  1.508474161E+00  2.303721983E+01  2.682209015E-07  0.00000E+00  9.000E+00
      21     1     4     4   507   513  7.249873165E-01 -7.211503141E-01  1.257879613E+00  1.621087753E+00  5.575503985E-08  0.00000E+00  9.000E+00
#rwgt            1          17   10.308379825067014                1     4228493           0       11110           0
<weights>
0.16246E+02
</weights>
</event>
<event>
     15  10001  1.35503E+01  1.31586E+02 -1.00000E+00  3.48004E-01
      21    -1     0     0   502   501  0.000000000E+00  0.000000000E+00  6.495474719E+02  6.495474719E+02  0.000000000E+00  0.00000E+00  9.000E+00
      21    -1     0     0   512   502  0.000000000E+00  0.000000000E+00 -2.979531612E+02  2.979531612E+02  0.000000000E+00  0.00000E+00  9.000E+00
      -6     2     1     2     0   501 -1.962937338E+01  6.114556164E+01 -1.128899842E+01  1.847708430E+02  1.728835762E+02  0.00000E+00  9.000E+00
       6     2     1     2   507     0 -2.764211457E+01  6.165573735E+01 -1.453314568E+02  2.377564565E+02  1.756171513E+02  0.00000E+00  9.000E+00
     -24     2     3     3     0     0 -7.398546950E+01  1.578366104E+01 -1.425959472E+01  1.121996563E+02  8.162385181E+01  0.00000E+00  9.000E+00
      24     2     4     4     0     0 -6.287928192E+01  4.269369369E+00 -1.342923283E+02  1.684806011E+02  7.987021916E+01  0.00000E+00  9.000E+00
     -11     1     6     6     0     0  1.507553227E+00  3.009129942E+01 -5.803846265E+01  6.539282961E+01  0.000000000E+00  0.00000E+00  9.000E+00
      12     1     6     6     0     0 -6.438683514E+01 -2.582193005E+01 -7.625386561E+01  1.030877715E+02  4.672030912E-06  0.00000E+00  9.000E+00
      13     1     5     5     0     0 -5.728025948E+01  4.799240405E+01 -5.864375446E+00  7.495792067E+01  0.000000000E+00  0.00000E+00  9.000E+00
     -14     1     5     5     0     0 -1.670521002E+01 -3.220874300E+01 -8.395219272E+00  3.724173565E+01  1.149612756E-06  0.00000E+00  9.000E+00
       5     1     4     4   511     0  1.685984835E+01  3.703282332E+01 -6.856099540E+00  4.153616605E+01  4.750000000E+00  0.00000E+00  9.000E+00
      -5     1     3     3     0   514  5.431161894E+01  4.632444563E+01  2.836060130E+00  7.159826779E+01  4.750000000E+00  0.00000E+00  9.000E+00
      21     1     1     2   512   507  4.727148795E+01 -1.228012990E+02  5.082147660E+02  5.249733336E+02  5.394796609E-06  0.00000E+00  9.000E+00
      21     1     4     4   507   511  1.837731899E+01  2.035354466E+01 -4.183029021E+00  2.773968935E+01  1.066240300E-06  0.00000E+00  9.000E+00
      21     1     3     3   514   501  4.447719133E-02 -9.625450289E-01  1.345361641E-01  9.729188726E-01  2.512845688E-08  0.00000E+00  9.000E+00
#rwgt            1          17   4.3850736106387735                1     4236735           0       11011           0
<weights>
0.14732E+02
</weights>
</event>
<event>
     15  10001  1.35503E+01  1.07823E+02 -1.00000E+00  4.60219E-01
       1    -1     0     0   502     0  0.000000000E+00  0.000000000E+00  2.940072644E+02  2.940072644E+02  0.000000000E+00  0.00000E+00  9.000E+00
      21    -1     0     0   511   502  0.000000000E+00  0.000000000E+00 -4.782649117E+02  4.782649117E+02  0.000000000E+00  0.00000E+00  9.000E+00
      -6     2     1     2     0   507 -1.754733839E+02 -1.282647876E+02 -2.565207484E+02  3.778582824E+02  1.724274427E+02  0.00000E+00  9.000E+00
       6     2     1     2   507     0  1.331585309E+02  2.909246014E+01 -5.582525683E+01  2.269853276E+02  1.727087550E+02  0.00000E+00  9.000E+00
     -24     2     3     3     0     0 -7.767729264E+01 -8.876270491E+01 -2.301812279E+02  2.689419087E+02  7.371413032E+01  0.00000E+00  9.000E+00
      24     2     4     4     0     0  1.389503468E+02  1.191256117E+01 -9.187751923E+01  1.853179966E+02  8.032542151E+01  0.00000E+00  9.000E+00
     -11     1     6     6     0     0  7.801370963E+00 -7.944695600E+00  1.234663639E+01  1.662585358E+01  0.000000000E+00  0.00000E+00  9.000E+00
      12     1     6     6     0     0  1.311489758E+02  1.985725677E+01 -1.042241556E+02  1.686921430E+02  3.568322551E-06  0.00000E+00  9.000E+00
      13     1     5     5     0     0  9.611113931E+00 -3.382234925E+01 -4.667235236E+01  5.843486369E+01  0.000000000E+00  0.00000E+00  9.000E+00
     -14     1     5     5     0     0 -8.728840657E+01 -5.494035566E+01 -1.835088755E+02  2.105070450E+02  7.629394531E-06  0.00000E+00  9.000E+00
       5     1     4     4   512     0 -4.673024641E+00  1.311058097E+01  3.385045321E+01  3.690718325E+01  4.750000000E+00  0.00000E+00  9.000E+00
      -5     1     3     3     0   513 -9.077884755E+01 -3.583593781E+01 -2.527675522E+01  1.009281450E+02  4.750000000E+00  0.00000E+00  9.000E+00
       1     1     1     2   511     0  4.231485293E+01  9.917232749E+01  1.280883579E+02  1.674285661E+02  0.000000000E+00  0.00000E+00  9.000E+00
      21     1     4     4   507   512 -1.118791200E+00  4.069318006E+00  2.201809188E+00  4.760147738E+00  2.511188320E-07  0.00000E+00  9.000E+00
      21     1     3     3   513   507 -7.017243694E+00 -3.666144907E+00 -1.062765331E+00  7.988228696E+00  2.225217897E-07  0.00000E+00  9.000E+00
#rwgt            1           4  0.50585412915726402                1     4242469           0       11011           0
<weights>
0.11639E+02
</weights>
</event>
<event>
     14  10001 -1.35503E+01  6.09774E+01 -1.00000E+00  2.36666E-01
      21    -1     0     0   502   501  0.000000000E+00  0.000000000E+00  4.143790681E+02  4.143790681E+02  0.000000000E+00  0.00000E+00  9.000E+00
       2    -1     0     0   507     0  0.000000000E+00  0.000000000E+00 -5.852284936E+02  5.852284936E+02  0.000000000E+00  0.00000E+00  9.000E+00
      -6     2     1     2     0   501 -3.348139010E+01 -4.007653230E+01  3.083806764E+02  3.575073127E+02  1.731638101E+02  0.00000E+00  9.000E+00
       6     2     1     2   507     0 -1.253268696E+01  8.008844395E+01 -3.427492339E+01  1.929862777E+02  1.717489619E+02  0.00000E+00  9.000E+00
     -24     2     3     3     0     0 -2.069487177E+01 -2.030202276E+01  5.042601576E+01  9.827572587E+01  7.921417413E+01  0.00000E+00  9.000E+00
      24     2     4     4     0     0 -2.302515921E+01  8.112134472E+01  3.564967173E+01  1.221119497E+02  8.080593199E+01  0.00000E+00  9.000E+00
     -11     1     6     6     0     0 -4.451298151E+01  3.146487292E+01  4.032323223E+01  6.780417988E+01  0.000000000E+00  0.00000E+00  9.000E+00
      12     1     6     6     0     0  2.148782230E+01  4.965647180E+01 -4.673560501E+00  5.430776985E+01  1.071226642E-06  0.00000E+00  9.000E+00
      13     1     5     5     0     0 -1.266053318E+01  2.737215625E+01  2.599428354E+00  3.027013489E+01  0.000000000E+00  0.00000E+00  9.000E+00
     -14     1     5     5     0     0 -8.034338590E+00 -4.767417901E+01  4.782658741E+01  6.800559098E+01  1.168007728E-06  0.00000E+00  9.000E+00
       5     1     4     4   507     0  1.049247225E+01 -1.032900770E+00 -6.992459513E+01  7.087432794E+01  4.750000000E+00  0.00000E+00  9.000E+00
      -5     1     3     3     0   511 -6.463038685E+00 -1.685001941E+01  1.960121555E+02  1.968985059E+02  4.750000000E+00  0.00000E+00  9.000E+00
       2     1     1     2   502     0  4.601407706E+01 -4.001191165E+01 -4.449551785E+02  4.491139713E+02  0.000000000E+00  0.00000E+00  9.000E+00
      21     1     3     3   511   501 -6.323479639E+00 -2.924490132E+00  6.194250513E+01  6.233308094E+01  6.743495762E-07  0.00000E+00  9.000E+00
#rwgt            1          17  -22.198124226450421                1     4246325           0         111           0
<weights>
-.14206E+02
</weights>
</event>
<event>
     15  10001  1.35503E+01  2.85589E+01 -1.00000E+00  4.19777E-01
      21    -1     0     0   502   501  0.000000000E+00  0.000000000E+00  4.766002159E+02  4.766002159E+02  0.000000000E+00  0.00000E+00  9.000E+00
      21    -1     0     0   507   511  0.000000000E+00  0.000000000E+00 -2.081519356E+03  2.081519356E+03  0.000000000E+00  0.00000E+00  9.000E+00
      -6     2     1     2     0   501  8.278083752E+01 -8.776195338E+01 -2.670331140E+02  3.408712273E+02  1.741599325E+02  0.00000E+00  9.000E+00
       6     2     1     2   507     0 -7.353597040E+01  1.147831126E+02 -1.766378588E+03  1.787805116E+03  2.399398164E+02  0.00000E+00  9.000E+00
     -24     2     3     3     0     0 -1.339948065E+01 -1.223153730E+00 -8.812672426E+01  1.196416275E+02  7.979196268E+01  0.00000E+00  9.000E+00
      24     2     4     4     0     0 -1.137576385E+02  1.528948171E+02 -1.362391319E+03  1.378116077E+03  8.231762138E+01  0.00000E+00  9.000E+00
     -11     1     6     6     0     0 -1.214624907E+02  1.099113250E+02 -1.093688259E+03  1.105887718E+03  0.000000000E+00  0.00000E+00  9.000E+00
      12     1     6     6     0     0  7.704852221E+00  4.298349205E+01 -2.687030597E+02  2.722283594E+02  0.000000000E+00  0.00000E+00  9.000E+00
      13     1     5     5     0     0 -4.257286823E+01 -1.424028259E+01 -6.927410100E+01  8.254777905E+01  0.000000000E+00  0.00000E+00  9.000E+00
     -14     1     5     5     0     0  2.917338758E+01  1.301712886E+01 -1.885262326E+01  3.709384842E+01  9.830249847E-07  0.00000E+00  9.000E+00
       5     1     4     4   512     0  3.973129275E+01 -4.474025920E+01 -3.829859452E+02  3.876610158E+02  4.750000000E+00  0.00000E+00  9.000E+00
      -5     1     3     3     0   514  9.646488422E+01 -8.548555653E+01 -1.779601069E+02  2.197853871E+02  4.750000000E+00  0.00000E+00  9.000E+00
      21     1     1     2   502   511 -9.244867124E+00 -2.702115926E+01  4.284925621E+02  4.294432283E+02  1.618438983E-05  0.00000E+00  9.000E+00
      21     1     4     4   507   512  4.903753209E-01  6.628554775E+00 -2.100132378E+01  2.202802322E+01  0.000000000E+00  0.00000E+00  9.000E+00
      21     1     3     3   514   501 -2.845660557E-01 -1.053243113E+00 -9.462829116E-01  1.444212673E+00  1.053671213E-08  0.00000E+00  9.000E+00
#rwgt            1          17   3.9891046604097213                1     4258014           0       11011           0
<weights>
0.21834E+02
</weights>
</event>
<event>
     14  10001 -1.35503E+01  3.81372E+00 -1.00000E+00  7.51741E-01
      21    -1     0     0   502   501  0.000000000E+00  0.000000000E+00  1.133377043E+02  1.133377043E+02  0.000000000E+00  0.00000E+00  9.000E+00
      21    -1     0     0   507   512  0.000000000E+00  0.000000000E+00 -3.908071958E+02  3.908071958E+02  0.000000000E+00  0.00000E+00  9.000E+00
      -6     2     1     2     0   501  7.019762972E+01 -3.770659455E+01 -2.199913964E+01  1.797122046E+02  1.595713628E+02  0.00000E+00  9.000E+00
       6     2     1     2   507     0 -7.284527968E+01  3.496170796E+01 -2.280425372E+02  2.967410095E+02  1.718227929E+02  0.00000E+00  9.000E+00
     -24     2     3     3     0     0  4.174263490E+01 -6.823906675E+01 -5.670187463E+01  1.252258677E+02  7.789350138E+01  0.00000E+00  9.000E+00
      24     2     4     4     0     0 -8.719439660E+00  6.744583785E+01 -8.057480634E+01  1.324519606E+02  8.016391196E+01  0.00000E+00  9.000E+00
     -11     1     6     6     0     0  2.651403188E+01  6.450763120E+01 -5.209816941E+01  8.705427976E+01  0.000000000E+00  0.00000E+00  9.000E+00
      12     1     6     6     0     0 -3.523347154E+01  2.938206648E+00 -2.847663693E+01  4.539768084E+01  1.118282261E-06  0.00000E+00  9.000E+00
      13     1     5     5     0     0  4.649122522E+01 -9.207153300E+00 -4.397125724E+01  6.465042272E+01  0.000000000E+00  0.00000E+00  9.000E+00
     -14     1     5     5     0     0 -4.748590326E+00 -5.903191345E+01 -1.273061739E+01  6.057544499E+01  7.152557373E-07  0.00000E+00  9.000E+00
       5     1     4     4   511     0 -5.707958955E+01 -2.656938043E+01 -1.311322344E+02  1.455411864E+02  4.750000000E+00  0.00000E+00  9.000E+00
      -5     1     3     3     0   501  2.845499482E+01  3.053247221E+01  3.470273500E+01  5.448633687E+01  4.750000000E+00  0.00000E+00  9.000E+00
      21     1     1     2   502   512  2.647649961E+00  2.744886584E+00 -2.742781470E+01  2.769168597E+01  3.371747881E-07  0.00000E+00  9.000E+00
      21     1     4     4   507   511 -7.046250471E+00 -5.914749452E+00 -1.633549639E+01  1.874786252E+01  3.371747881E-07  0.00000E+00  9.000E+00
#rwgt            1          17  -11.751853485896197                1     4265127           0         110           0
<weights>
-.17944E+02
</weights>
</event>
<event>
     15  10001  1.35503E+01  7.35946E+00 -1.00000E+00  3.25191E-01
      21    -1     0     0   511   501  0.000000000E+00  0.000000000E+00  2.485286008E+02  2.485286008E+02  0.000000000E+00  0.00000E+00  9.000E+00
      21    -1     0     0   507   502  0.000000000E+00  0.000000000E+00 -4.016377165E+02  4.016377165E+02  0.000000000E+00  0.00000E+00  9.000E+00
      -6     2     1     2     0   501 -1.025911962E+02  1.515958564E+02  1.084574338E+02  2.745606047E+02  1.735345888E+02  0.00000E+00  9.000E+00
       6     2     1     2   507     0  1.098277949E+02 -1.502566927E+02 -1.915586684E+02  3.052120683E+02  1.477175175E+02  0.00000E+00  9.000E+00
     -24     2     3     3     0     0 -1.118035092E+02  8.208633207E+01  2.054271368E+01  1.619052770E+02  8.095137462E+01  0.00000E+00  9.000E+00
      24     2     4     4     0     0  1.036525164E+02 -1.556866929E+02 -1.294956240E+02  2.418236103E+02  8.202043247E+01  0.00000E+00  9.000E+00
     -11     1     6     6     0     0  9.227287299E+01 -1.622060231E+02 -1.318568653E+02  2.284979430E+02  0.000000000E+00  0.00000E+00  9.000E+00
      12     1     6     6     0     0  1.137964338E+01  6.519330128E+00  2.361241303E+00  1.332566731E+01  1.010206417E-06  0.00000E+00  9.000E+00
      13     1     5     5     0     0  3.308251236E+00  9.261538621E-01 -1.602518279E+01  1.638928829E+01  0.000000000E+00  0.00000E+00  9.000E+00
     -14     1     5     5     0     0 -1.151117604E+02  8.116017820E+01  3.656789647E+01  1.455159887E+02  3.960906917E-06  0.00000E+00  9.000E+00
       5     1     4     4   513     0  5.427455886E+00  5.755039079E+00 -6.186502225E+01  6.254935036E+01  4.750000000E+00  0.00000E+00  9.000E+00
      -5     1     3     3     0   512  5.796605368E+00  5.616620824E+01  7.127874423E+01  9.105748438E+01  4.750000000E+00  0.00000E+00  9.000E+00
      21     1     1     2   511   502 -7.236598662E+00 -1.339163703E+00 -7.000788109E+01  7.039364413E+01  9.536743164E-07  0.00000E+00  9.000E+00
      21     1     3     3   512   501  3.415707604E+00  1.334331612E+01  1.663597592E+01  2.159784337E+01  5.331201500E-07  0.00000E+00  9.000E+00
      21     1     4     4   507   513  7.478226328E-01 -3.250388613E-01 -1.980221664E-01  8.391076986E-01  1.148211584E-08  0.00000E+00  9.000E+00
#rwgt            1          17   208.73188144844534                1     4273899           0       11110           0
<weights>
0.13561E+02
</weights>
</event>
<event>
     15  10001  1.35503E+01  9.43223E+01 -1.00000E+00  1.41879E-01
      21    -1     0     0   502   501  0.000000000E+00  0.000000000E+00  2.137757770E+02  2.137757770E+02  0.000000000E+00  0.00000E+00  9.000E+00
       1    -1     0     0   507     0  0.000000000E+00  0.000000000E+00 -1.006046699E+03  1.006046699E+03  0.000000000E+00  0.00000E+00  9.000E+00
      -6     2     1     2     0   501 -1.058230468E+02 -9.994083081E+01 -3.170872006E+01  2.260113289E+02  1.699676174E+02  0.00000E+00  9.000E+00
       6     2     1     2   507     0  1.301375102E+01  1.167674186E+02  1.792188243E+01  2.096337633E+02  1.726879646E+02  0.00000E+00  9.000E+00
     -24     2     3     3     0     0 -1.218567986E+02 -9.969178684E+01  5.003388312E+00  1.759930931E+02  7.849205815E+01  0.00000E+00  9.000E+00
      24     2     4     4     0     0 -1.007987898E+01  1.433300212E+02 -2.188029133E+00  1.638165284E+02  7.865092870E+01  0.00000E+00  9.000E+00
     -11     1     6     6     0     0  2.884798132E+01  1.038245510E+02 -7.978871046E+00  1.080527917E+02  0.000000000E+00  0.00000E+00  9.000E+00
      12     1     6     6     0     0 -3.892786031E+01  3.950547021E+01  5.790841913E+00  5.576373674E+01  9.536743164E-07  0.00000E+00  9.000E+00
      13     1     5     5     0     0  3.294297118E+00  4.188978967E+00  1.206858307E+01  1.319282515E+01  0.000000000E+00  0.00000E+00  9.000E+00
     -14     1     5     5     0     0 -1.251510957E+02 -1.038807658E+02 -7.065194756E+00  1.628002679E+02  5.521719731E-06  0.00000E+00  9.000E+00
       5     1     4     4   512     0  2.377479620E+01 -2.945057727E+01  1.802334996E+01  4.218982199E+01  4.750000000E+00  0.00000E+00  9.000E+00
      -5     1     3     3     0   511  1.075400677E+01 -3.302368318E+00  5.853825866E-01  1.222536179E+01  4.750000000E+00  0.00000E+00  9.000E+00
       1     1     1     2   502     0  9.280929574E+01 -1.682658777E+01 -7.784840847E+02  7.841773840E+02  0.000000000E+00  0.00000E+00  9.000E+00
      21     1     3     3   511   501  5.279745041E+00  3.053324343E+00 -3.729749096E+01  3.779287405E+01  1.348699152E-06  0.00000E+00  9.000E+00
      21     1     4     4   507   512 -6.811661934E-01  2.887974666E+00  2.086561605E+00  3.627412905E+00  7.300048300E-08  0.00000E+00  9.000E+00
#rwgt            1          17   33.520426688236014                1     4286099           0       11110           0
<weights>
0.13669E+02
</weights>
</event>
<event>
     15  10001  1.35503E+01  1.88967E+02 -1.00000E+00  4.15408E-01
       2    -1     0     0   507     0  0.000000000E+00  0.000000000E+00  3.395462851E+02  3.395462851E+02  0.000000000E+00  0.00000E+00  9.000E+00
      21    -1     0     0   501   502  0.000000000E+00  0.000000000E+00 -5.543445109E+02  5.543445109E+02  0.000000000E+00  0.00000E+00  9.000E+00
      -6     2     1     2     0   502 -2.306654684E+02  3.554458692E+01 -1.410297074E+02  3.216536924E+02  1.705923313E+02  0.00000E+00  9.000E+00
       6     2     1     2   507     0  2.197144244E+02  1.531045703E+02 -1.686733831E+02  3.607770288E+02  1.731875186E+02  0.00000E+00  9.000E+00
     -24     2     3     3     0     0 -1.863969366E+02  8.771669081E+01 -1.060813183E+02  2.445490286E+02  7.818532805E+01  0.00000E+00  9.000E+00
      24     2     4     4     0     0  2.081225220E+02  1.487192457E+02 -9.344884780E+01  2.835576192E+02  7.899264557E+01  0.00000E+00  9.000E+00
     -11     1     6     6     0     0  6.346254878E+01  2.802676062E+01 -6.101554002E+01  9.238988328E+01  0.000000000E+00  0.00000E+00  9.000E+00
      12     1     6     6     0     0  1.446599732E+02  1.206924851E+02 -3.243330778E+01  1.911677360E+02  6.910026906E-06  0.00000E+00  9.000E+00
      13     1     5     5     0     0 -9.335235387E+00 -1.043747373E+01 -2.033732476E+01  2.469198768E+01  0.000000000E+00  0.00000E+00  9.000E+00
     -14     1     5     5     0     0 -1.770617012E+02  9.815416453E+01 -8.574399349E+01  2.198570410E+02  7.072638023E-06  0.00000E+00  9.000E+00
       5     1     4     4   512     0  1.223359209E+00  2.679590762E+00 -4.206696896E+01  4.243664916E+01  4.750000000E+00  0.00000E+00  9.000E+00
      -5     1     3     3     0   511 -3.759705573E+01 -4.592655440E+01 -3.125911670E+01  6.724940056E+01  4.750000000E+00  0.00000E+00  9.000E+00
       2     1     1     2   501     0  1.095104396E+01 -1.886491572E+02  9.490486468E+01  2.114600748E+02  0.000000000E+00  0.00000E+00  9.000E+00
      21     1     4     4   507   512  1.036854319E+01  1.705733797E+00 -3.315756633E+01  3.478276039E+01  1.168007728E-06  0.00000E+00  9.000E+00
      21     1     3     3   511   502 -6.671476072E+00 -6.245549496E+00 -3.689272483E+00  9.855263210E+00  2.308477966E-07  0.00000E+00  9.000E+00
#rwgt            1          17   24.554904344889820                1     4297027           0       11011           0
<weights>
0.13156E+02
</weights>
</event>
<event>
     14  10001  1.35503E+01  1.75535E+01 -1.00000E+00  7.45603E-01
      21    -1     0     0   511   501  0.000000000E+00  0.000000000E+00  5.117253113E+02  5.117253113E+02  0.000000000E+00  0.00000E+00  9.000E+00
      21    -1     0     0   507   502  0.000000000E+00  0.000000000E+00 -8.628523747E+02  8.628523747E+02  0.000000000E+00  0.00000E+00  9.000E+00
      -6     2     1     2     0   501  4.001241094E+02 -1.063096186E+02  2.852627554E+02  5.315514855E+02  1.725430502E+02  0.00000E+00  9.000E+00
       6     2     1     2   507     0 -4.175176375E+02  1.086738587E+02 -6.638592486E+02  8.104272123E+02  1.730669792E+02  0.00000E+00  9.000E+00
     -24     2     3     3     0     0  2.688579304E+02 -1.268670230E+02  1.533058908E+02  3.442319904E+02  8.132120768E+01  0.00000E+00  9.000E+00
      24     2     4     4     0     0 -1.652579971E+02 -7.267166060E+00 -2.186149326E+02  2.855691564E+02  7.996397328E+01  0.00000E+00  9.000E+00
     -11     1     6     6     0     0 -1.208502717E+01  1.120251462E+00 -7.319514263E+01  7.419455337E+01  0.000000000E+00  0.00000E+00  9.000E+00
      12     1     6     6     0     0 -1.531729699E+02 -8.387417522E+00 -1.454197899E+02  2.113746030E+02  2.697398305E-06  0.00000E+00  9.000E+00
      13     1     5     5     0     0  1.659889179E+02 -3.658331865E+01  1.009514857E+02  1.976913314E+02  0.000000000E+00  0.00000E+00  9.000E+00
     -14     1     5     5     0     0  1.028690125E+02 -9.028370430E+01  5.235440511E+01  1.465406590E+02  3.162979880E-06  0.00000E+00  9.000E+00
       5     1     4     4   513     0 -2.399981017E+02  1.082020129E+02 -4.250672599E+02  5.000115022E+02  4.750000000E+00  0.00000E+00  9.000E+00
      -5     1     3     3     0   501  1.312661790E+02  2.055740433E+01  1.319568646E+02  1.873194951E+02  4.750000000E+00  0.00000E+00  9.000E+00
      21     1     1     2   511   502  1.739352810E+01 -2.364240119E+00  2.746942987E+01  3.259898815E+01  8.920806376E-07  0.00000E+00  9.000E+00
      21     1     4     4   507   513 -1.226153868E+01  7.739011894E+00 -2.017705616E+01  2.484655371E+01  4.129530925E-07  0.00000E+00  9.000E+00
#rwgt            1          17   59.059396615799258                1     4308369           0         110           0
<weights>
0.17197E+02
</weights>
</event>
<event>
     15  10001  1.35503E+01  6.27287E+01 -1.00000E+00  7.47521E-01
      21    -1     0     0   507   512  0.000000000E+00  0.000000000E+00  5.262248223E+02  5.262248223E+02  0.000000000E+00  0.00000E+00  9.000E+00
      21    -1     0     0   501   502  0.000000000E+00  0.000000000E+00 -2.955068894E+02  2.955068894E+02  0.000000000E+00  0.00000E+00  9.000E+00
      -6     2     1     2     0   502 -1.948740278E+01  7.564756829E+01  1.015521681E+02  2.142086244E+02  1.716688046E+02  0.00000E+00  9.000E+00
       6     2     1     2   507     0 -3.945092041E+01 -9.712229992E+01  3.355162478E+02  3.918487682E+02  1.731623180E+02  0.00000E+00  9.000E+00
     -24     2     3     3     0     0  3.985317827E+01  1.325593124E+01  9.038969630E+01  1.272100968E+02  7.904502520E+01  0.00000E+00  9.000E+00
      24     2     4     4     0     0  1.920188667E+01 -1.032501838E+02  1.694777922E+02  2.149471419E+02  8.031337905E+01  0.00000E+00  9.000E+00
     -11     1     6     6     0     0 -2.955517477E+01 -3.938095258E+01  4.450014264E+01  6.636739016E+01  0.000000000E+00  0.00000E+00  9.000E+00
      12     1     6     6     0     0  4.875706144E+01 -6.386923123E+01  1.249776496E+02  1.485797518E+02  3.568322551E-06  0.00000E+00  9.000E+00
      13     1     5     5     0     0  4.682235193E+01  2.853644806E+01  2.603485442E+01  6.069987770E+01  0.000000000E+00  0.00000E+00  9.000E+00
     -14     1     5     5     0     0 -6.969173661E+00 -1.528051682E+01  6.435484188E+01  6.651021913E+01  1.348699152E-06  0.00000E+00  9.000E+00
       5     1     4     4   511     0 -5.597146818E+01  3.483394664E+00  1.613740812E+02  1.709066876E+02  4.750000000E+00  0.00000E+00  9.000E+00
      -5     1     3     3     0   513 -5.338844823E+01  5.702951712E+01  1.037423799E+01  7.894858796E+01  4.750000000E+00  0.00000E+00  9.000E+00
      21     1     1     2   501   512  5.893832319E+01  2.147473163E+01 -2.063504831E+02  2.156743190E+02  2.697398305E-06  0.00000E+00  9.000E+00
      21     1     4     4   507   511 -2.681338901E+00  2.644489228E+00  4.664374352E+00  5.994938671E+00  1.332800375E-07  0.00000E+00  9.000E+00
      21     1     3     3   513   502 -5.952132820E+00  5.362119931E+00  7.882338547E-01  8.049939619E+00  1.264405455E-07  0.00000E+00  9.000E+00
#rwgt            1          17   5.8400868483226986                1     4316366           0       11011           0
<weights>
0.93066E+01
</weights>
</event>
<event>
     15  10001  1.35503E+01  3.28365E+00 -1.00000E+00  2.00687E-01
      21    -1     0     0   507   512  0.000000000E+00  0.000000000E+00  4.774153113E+02  4.774153113E+02  0.000000000E+00  0.00000E+00  9.000E+00
      21    -1     0     0   501   502  0.000000000E+00  0.000000000E+00 -4.431897248E+02  4.431897248E+02  0.000000000E+00  0.00000E+00  9.000E+00
      -6     2     1     2     0   502  2.130784876E+02 -6.383861688E+01  2.203581528E+01  2.819209471E+02  1.718023061E+02  0.00000E+00  9.000E+00
       6     2     1     2   507     0 -2.155451649E+02  6.600607437E+01 -1.153392737E+02  5.111127769E+02  4.439781556E+02  0.00000E+00  9.000E+00
     -24     2     3     3     0     0  1.772854632E+02 -9.914216145E+01  4.440782979E+01  2.222242892E+02  7.843644372E+01  0.00000E+00  9.000E+00
      24     2     4     4     0     0 -2.281312393E+02  6.415011533E+01 -2.633225006E+02  3.623887165E+02  7.633965448E+01  0.00000E+00  9.000E+00
     -11     1     6     6     0     0  7.809970611E-01  1.364935402E+00  4.352599563E+00  4.627972345E+00  0.000000000E+00  0.00000E+00  9.000E+00
      12     1     6     6     0     0 -2.289122363E+02  6.278517993E+01 -2.676751002E+02  3.577607441E+02  1.078959322E-05  0.00000E+00  9.000E+00
      13     1     5     5     0     0 -2.022904238E+00 -1.888441116E+01  1.363071814E+01  2.337754485E+01  0.000000000E+00  0.00000E+00  9.000E+00
     -14     1     5     5     0     0  1.793083675E+02 -8.025775029E+01  3.077711166E+01  1.988467443E+02  7.440799014E-06  0.00000E+00  9.000E+00
       5     1     4     4   514     0  1.251496511E+01  6.748271499E-01  1.415317056E+02  1.421649251E+02  4.750000000E+00  0.00000E+00  9.000E+00
      -5     1     3     3     0   511  2.191940212E+01  2.947229933E+01 -2.463158475E+01  4.447869247E+01  4.750000000E+00  0.00000E+00  9.000E+00
      21     1     3     3   511   502  1.387362225E+01  5.831245239E+00  2.259570234E+00  1.521796547E+01  4.369878262E-07  0.00000E+00  9.000E+00
      21     1     1     2   501   512  2.466677262E+00 -2.167457497E+00  1.275290450E+02  1.275713121E+02  1.348699152E-06  0.00000E+00  9.000E+00
      21     1     4     4   507   514  7.110927514E-02  1.181131894E+00  6.451521340E+00  6.559135360E+00  1.192092896E-07  0.00000E+00  9.000E+00
#rwgt            1          17   104.60737825362506                1     4324621           0      110110           0
<weights>
0.21710E+02
</weights>
</event>
<event>
     15  10001 -1.35503E+01  2.37414E+01 -1.00000E+00  2.34493E-01
      21    -1     0     0   502   501  0.000000000E+00  0.000000000E+00  4.851515578E+02  4.851515578E+02  0.000000000E+00  0.00000E+00  9.000E+00
      -2    -1     0     0     0   502  0.000000000E+00  0.000000000E+00 -5.798548975E+02  5.798548975E+02  0.000000000E+00  0.00000E+00  9.000E+00
      -6     2     1     2     0   501 -7.149472907E+01 -1.839643709E+02  1.897070481E+02  3.213738921E+02  1.683390282E+02  0.00000E+00  9.000E+00
       6     2     1     2   507     0  4.878665123E+01  1.908923710E+02  1.543615513E+02  3.042187850E+02  1.729206350E+02  0.00000E+00  9.000E+00
     -24     2     3     3     0     0 -5.841848166E+01 -1.771545845E+02  9.381321397E+01  2.240425701E+02  8.122615521E+01  0.00000E+00  9.000E+00
      24     2     4     4     0     0  8.934598462E+01  1.386901387E+02  1.124377347E+02  2.256855413E+02  1.052333588E+02  0.00000E+00  9.000E+00
     -11     1     6     6     0     0 -4.225334999E+00  8.670941552E+01  6.577695894E+01  1.089173289E+02  0.000000000E+00  0.00000E+00  9.000E+00
      12     1     6     6     0     0  9.357131962E+01  5.198072318E+01  4.666077578E+01  1.167682124E+02  2.697398305E-06  0.00000E+00  9.000E+00
      13     1     5     5     0     0 -7.166056196E+01 -1.044697200E+02  7.707387553E+01  1.482887077E+02  0.000000000E+00  0.00000E+00  9.000E+00
     -14     1     5     5     0     0  1.324208030E+01 -7.268486453E+01  1.673933845E+01  7.575386244E+01  1.581489940E-06  0.00000E+00  9.000E+00
       5     1     4     4   512     0 -3.814131271E+01  5.027853675E+01  4.045214611E+01  7.511078230E+01  4.750000000E+00  0.00000E+00  9.000E+00
      -5     1     3     3     0   511 -9.315634333E+00 -2.726771339E+00  5.393865884E+01  5.501052392E+01  4.750000000E+00  0.00000E+00  9.000E+00
      -2     1     1     2     0   507  2.270807783E+01 -6.928000048E+00 -4.387719390E+02  4.394137781E+02  0.000000000E+00  0.00000E+00  9.000E+00
      21     1     3     3   511   501 -3.760613072E+00 -4.083015060E+00  4.195517525E+01  4.232079811E+01  6.743495762E-07  0.00000E+00  9.000E+00
      21     1     4     4   507   512 -2.418020679E+00  1.923695499E+00  1.471670432E+00  3.422461430E+00  5.960464478E-08  0.00000E+00  9.000E+00
#rwgt            1          17  -184.28144158155621                1     4335125           0       11110           0
<weights>
-.14094E+02
</weights>
</event>
<event>
     15  10001  1.35503E+01  2.74796E+01 -1.00000E+00  1.58843E-01
      21    -1     0     0   511   501  0.000000000E+00  0.000000000E+00  8.970150117E+02  8.970150117E+02  0.000000000E+00  0.00000E+00  9.000E+00
      21    -1     0     0   507   502  0.000000000E+00  0.000000000E+00 -2.897553641E+02  2.897553641E+02  0.000000000E+00  0.00000E+00  9.000E+00
      -6     2     1     2     0   501  6.298399818E+00 -1.566064432E+02  7.783531997E+02  8.124108367E+02  1.720825856E+02  0.00000E+00  9.000E+00
       6     2     1     2   507     0  9.498946481E+00  1.341215271E+02 -2.248985488E+02  3.139434378E+02  1.729228466E+02  0.00000E+00  9.000E+00
     -24     2     3     3     0     0  6.760849172E+01 -9.354659498E+01  4.141045126E+02  4.372205028E+02  7.973297398E+01  0.00000E+00  9.000E+00
      24     2     4     4     0     0  4.967887876E+01  1.342284856E+02 -2.130070920E+02  2.677388365E+02  7.633338723E+01  0.00000E+00  9.000E+00
     -11     1     6     6     0     0 -1.663483229E+01  2.576307504E+01 -6.982163490E+01  7.625951994E+01  0.000000000E+00  0.00000E+00  9.000E+00
      12     1     6     6     0     0  6.631371105E+01  1.084654105E+02 -1.431854571E+02  1.914793166E+02  6.607249480E-06  0.00000E+00  9.000E+00
      13     1     5     5     0     0  6.406398617E+01 -4.197303007E+01  3.277089524E+02  3.365398744E+02  0.000000000E+00  0.00000E+00  9.000E+00
     -14     1     5     5     0     0  3.544505552E+00 -5.157356491E+01  8.639556026E+01  1.006806285E+02  9.536743164E-07  0.00000E+00  9.000E+00
       5     1     4     4   513     0 -4.076101516E+01 -1.745147202E+00 -1.407057068E+01  4.341715508E+01  4.750000000E+00  0.00000E+00  9.000E+00
      -5     1     3     3     0   512 -2.170135050E+01 -2.961098346E+01  1.237845380E+02  1.292011351E+02  4.750000000E+00  0.00000E+00  9.000E+00
      21     1     1     2   511   502 -1.579734630E+01  2.248491612E+01  5.380499676E+01  6.041610117E+01  1.348699152E-06  0.00000E+00  9.000E+00
      21     1     3     3   512   501 -3.960874140E+01 -3.344886476E+01  2.404641490E+02  2.459891988E+02  2.697398305E-06  0.00000E+00  9.000E+00
      21     1     4     4   507   513  5.810828853E-01  1.638188718E+00  2.179113825E+00  2.787446261E+00  2.980232239E-08  0.00000E+00  9.000E+00
#rwgt            1          17   26.840069724715931                1     4350624           0       11110           0
<weights>
0.24317E+02
</weights>
</event>
<event>
     15  10001 -1.35503E+01  1.86130E+02 -1.00000E+00  3.82154E-01
      21    -1     0     0   502   501  0.000000000E+00  0.000000000E+00  3.126513931E+02  3.126513931E+02  0.000000000E+00  0.00000E+00  9.000E+00
       2    -1     0     0   507     0  0.000000000E+00  0.000000000E+00 -4.593894256E+02  4.593894256E+02  0.000000000E+00  0.00000E+00  9.000E+00
      -6     2     1     2     0   501  3.911593178E+01  7.796801670E+01  1.446399215E+02  2.410270998E+02  1.719426888E+02  0.00000E+00  9.000E+00
       6     2     1     2   507     0  1.406689118E+02 -1.261532797E+02 -1.919508051E+02  3.199919961E+02  1.727639235E+02  0.00000E+00  9.000E+00
     -24     2     3     3     0     0  1.204013108E+01 -7.817123428E+00  1.235667838E+02  1.478956233E+02  7.998933153E+01  0.00000E+00  9.000E+00
      24     2     4     4     0     0  1.490259150E+02 -7.107493254E+01 -9.196589888E+01  2.052546658E+02  8.007110525E+01  0.00000E+00  9.000E+00
     -11     1     6     6     0     0  2.900398906E+01 -2.616857520E+01  1.131265232E+01  4.066942109E+01  0.000000000E+00  0.00000E+00  9.000E+00
      12     1     6     6     0     0  1.200219259E+02 -4.490635734E+01 -1.032785512E+02  1.645852447E+02  2.697398305E-06  0.00000E+00  9.000E+00
      13     1     5     5     0     0  2.823335523E+01 -2.299018406E+01  1.913418406E+01  4.113134948E+01  0.000000000E+00  0.00000E+00  9.000E+00
     -14     1     5     5     0     0 -1.619322415E+01  1.517306063E+01  1.044325997E+02  1.067642738E+02  2.697398305E-06  0.00000E+00  9.000E+00
       5     1     4     4   511     0 -9.190715126E+00 -4.883011555E+01 -9.041981035E+01  1.032819153E+02  4.750000000E+00  0.00000E+00  9.000E+00
      -5     1     3     3     0   512  2.620280217E+01  8.289116609E+01  1.816833394E+01  8.893921022E+01  4.750000000E+00  0.00000E+00  9.000E+00
       2     1     1     2   502     0 -1.797848436E+02  4.818526304E+01 -9.942714887E+01  2.110217228E+02  0.000000000E+00  0.00000E+00  9.000E+00
      21     1     4     4   507   511  8.337119611E-01 -6.248231647E+00 -9.565095883E+00  1.145541503E+01  2.064765462E-07  0.00000E+00  9.000E+00
      21     1     3     3   512   501  8.729985254E-01  2.893974035E+00  2.904803734E+00  4.192266317E+00  4.214684851E-08  0.00000E+00  9.000E+00
#rwgt            1          17  -52.943034466022262                1     4355723           0       11011           0
<weights>
-.13803E+02
</weights>
</event>
<event>
     15  10001  1.35503E+01  3.41182E+01 -1.00000E+00  2.60603E-01
      21    -1     0     0   511   501  0.000000000E+00  0.000000000E+00  2.060698359E+02  2.060698359E+02  0.000000000E+00  0.00000E+00  9.000E+00
      21    -1     0     0   507   502  0.000000000E+00  0.000000000E+00 -6.019142228E+02  6.019142228E+02  0.000000000E+00  0.00000E+00  9.000E+00
      -6     2     1     2     0   501  2.353975751E+00 -1.317391016E+02  1.061093582E+02  2.407688502E+02  1.713175742E+02  0.00000E+00  9.000E+00
       6     2     1     2   507     0 -7.895065978E+00  9.807384867E+01 -2.836065479E+02  3.462184858E+02  1.724927651E+02  0.00000E+00  9.000E+00
     -24     2     3     3     0     0 -6.191833680E+01 -1.052820079E+02  6.293626931E+01  1.579591443E+02  7.792262608E+01  0.00000E+00  9.000E+00
      24     2     4     4     0     0 -2.594107532E+01  1.284635341E+02 -2.635702751E+02  3.050184850E+02  7.994477639E+01  0.00000E+00  9.000E+00
     -11     1     6     6     0     0 -3.156612428E+01  7.971333478E+01 -2.302700395E+02  2.457130990E+02  0.000000000E+00  0.00000E+00  9.000E+00
      12     1     6     6     0     0  5.625048962E+00  4.875019936E+01 -3.330023564E+01  5.930538599E+01  1.651812370E-06  0.00000E+00  9.000E+00
      13     1     5     5     0     0  1.001178132E+01 -1.466832620E+01 -1.078206296E+01  2.077615076E+01  0.000000000E+00  0.00000E+00  9.000E+00
     -14     1     5     5     0     0 -7.193011812E+01 -9.061368174E+01  7.371833227E+01  1.371829936E+02  2.861022949E-06  0.00000E+00  9.000E+00
       5     1     4     4   513     0  1.712020192E+01 -2.882652351E+01 -2.010718526E+01  3.938186347E+01  4.750000000E+00  0.00000E+00  9.000E+00
      -5     1     3     3     0   512  5.847042886E+01 -2.322924645E+01  3.457667385E+01  7.194788264E+01  4.750000000E+00  0.00000E+00  9.000E+00
      21     1     1     2   511   502  5.541090228E+00  3.366525289E+01 -2.183471972E+02  2.209967228E+02  2.697398305E-06  0.00000E+00  9.000E+00
      21     1     3     3   512   501  5.801883692E+00 -3.227847166E+00  8.596415064E+00  1.086182322E+01  2.064765462E-07  0.00000E+00  9.000E+00
      21     1     4     4   507   513  9.258074210E-01 -1.563161966E+00  7.091246981E-02  1.818137313E+00  2.937728594E-08  0.00000E+00  9.000E+00
#rwgt            1          17   9.3799616750160535                1     4371975           0       11110           0
<weights>
0.15443E+02
</weights>
</event>
<event>
     15  10001  1.35503E+01  1.87081E+01 -1.00000E+00  2.47759E-01
      21    -1     0     0   502   512  0.000000000E+00  0.000000000E+00  1.413144642E+02  1.413144642E+02  0.000000000E+00  0.00000E+00  9.000E+00
      21    -1     0     0   507   502  0.000000000E+00  0.000000000E+00 -4.948085664E+02  4.948085664E+02  0.000000000E+00  0.00000E+00  9.000E+00
      -6     2     1     2     0   501  7.016965566E+01  1.142932683E+01  3.169841073E+01  1.909905819E+02  1.744081508E+02  0.00000E+00  9.000E+00
       6     2     1     2   507     0 -8.637801436E+01 -2.077173652E+01 -2.939305001E+02  3.519726585E+02  1.720377490E+02  0.00000E+00  9.000E+00
     -24     2     3     3     0     0  8.550727222E+01  3.954377759E+01 -2.153150704E+01  1.274478678E+02  8.309121046E+01  0.00000E+00  9.000E+00
      24     2     4     4     0     0 -4.198209675E+01 -7.280687852E+01 -1.510463396E+02  1.907653637E+02  8.070371280E+01  0.00000E+00  9.000E+00
     -11     1     6     6     0     0 -3.827970085E+01 -4.501038905E+01 -1.516106260E+02  1.627177081E+02  0.000000000E+00  0.00000E+00  9.000E+00
      12     1     6     6     0     0 -3.702395905E+00 -2.779648948E+01  5.642863965E-01  2.804765555E+01  9.434624052E-07  0.00000E+00  9.000E+00
      13     1     5     5     0     0  4.331410849E+01  4.128637543E+01 -4.877030775E+01  7.719598246E+01  0.000000000E+00  0.00000E+00  9.000E+00
     -14     1     5     5     0     0  4.219316374E+01 -1.742597848E+00  2.723880071E+01  5.025188531E+01  2.920019320E-06  0.00000E+00  9.000E+00
       5     1     4     4   511     0 -4.031592498E+01  5.467438261E+01 -1.215389588E+02  1.393159823E+02  4.750000000E+00  0.00000E+00  9.000E+00
      -5     1     3     3     0   514 -1.095174596E+01 -2.776930701E+01  4.778730643E+01  5.654435698E+01  4.750000000E+00  0.00000E+00  9.000E+00
      21     1     1     2   501   512  1.620835870E+01  9.342409693E+00 -9.126201280E+01  9.315979010E+01  0.000000000E+00  0.00000E+00  9.000E+00
      21     1     4     4   507   511 -4.079992626E+00 -2.639240615E+00 -2.134520166E+01  2.189131254E+01  2.384185791E-07  0.00000E+00  9.000E+00
      21     1     3     3   514   501 -4.385870597E+00 -3.451437490E-01  5.442611345E+00  6.998357190E+00  2.920019320E-07  0.00000E+00  9.000E+00
#rwgt            1          17   13.604765886624197                1     4381714           0       11011           0
<weights>
0.11604E+02
</weights>
</event>
<event>
     13  10001  1.35503E+01  9.33303E+01 -1.00000E+00  1.25191E-01
      21    -1     0     0   507   511  0.000000000E+00  0.000000000E+00  2.716309778E+02  2.716309778E+02  0.000000000E+00  0.00000E+00  9.000E+00
      21    -1     0     0   501   502  0.000000000E+00  0.000000000E+00 -2.281783438E+02  2.281783438E+02  0.000000000E+00  0.00000E+00  9.000E+00
      -6     2     1     2     0   502  7.163284397E+01 -1.011614490E+02 -4.445003215E+01  2.157530408E+02  1.709054304E+02  0.00000E+00  9.000E+00
       6     2     1     2   507     0 -2.504269152E+01  2.029173535E+01  7.165357966E+01  1.893219908E+02  1.722489181E+02  0.00000E+00  9.000E+00
     -24     2     3     3     0     0 -2.162523127E+01 -2.511652691E+01 -1.068669671E+00  8.775146313E+01  8.124461014E+01  0.00000E+00  9.000E+00
      24     2     4     4     0     0 -2.034739919E+01 -1.894284744E+01 -2.320923849E+01  8.644869482E+01  7.849751564E+01  0.00000E+00  9.000E+00
     -11     1     6     6     0     0  6.879817386E-01  2.780110863E+01 -2.151685336E+01  3.516176814E+01  0.000000000E+00  0.00000E+00  9.000E+00
      12     1     6     6     0     0 -2.103538093E+01 -4.674395608E+01 -1.692385124E+00  5.128692668E+01  7.509948712E-07  0.00000E+00  9.000E+00
      13     1     5     5     0     0 -3.371718737E+01 -4.457552866E+01 -1.859828980E+01  5.890435351E+01  0.000000000E+00  0.00000E+00  9.000E+00
     -14     1     5     5     0     0  1.209195610E+01  1.945900176E+01  1.752962013E+01  2.884710962E+01  9.536743164E-07  0.00000E+00  9.000E+00
       5     1     4     4   507     0 -4.695292327E+00  3.923458279E+01  9.486281815E+01  1.028732960E+02  4.750000000E+00  0.00000E+00  9.000E+00
      -5     1     3     3     0   502  9.325807524E+01 -7.604492209E+01 -4.338136248E+01  1.280015777E+02  4.750000000E+00  0.00000E+00  9.000E+00
      21     1     1     2   501   511 -4.659015246E+01  8.086971365E+01  1.624908649E+01  9.473429001E+01  1.410503336E-06  0.00000E+00  9.000E+00
#rwgt            2         113   5.6623502661342888                1     4392572           0           1           0
<weights>
0.13550E+02
</weights>
</event>
<event>
     13  10001  1.35503E+01  2.31843E+01 -1.00000E+00  7.52350E-01
      21    -1     0     0   512   501  0.000000000E+00  0.000000000E+00  5.036890421E+02  5.036890421E+02  0.000000000E+00  0.00000E+00  9.000E+00
      21    -1     0     0   507   502  0.000000000E+00  0.000000000E+00 -4.096795841E+02  4.096795841E+02  0.000000000E+00  0.00000E+00  9.000E+00
      -6     2     1     2     0   501 -1.982376851E+02  9.679459343E+01  3.430382459E+02  4.426232270E+02  1.719671766E+02  0.00000E+00  9.000E+00
       6     2     1     2   507     0  2.121199752E+02 -1.153632744E+02 -9.000079063E+01  3.100362900E+02  1.723913856E+02  0.00000E+00  9.000E+00
     -24     2     3     3     0     0 -7.873340452E+01  9.977083305E+01  1.377733362E+02  2.050387647E+02  8.310375890E+01  0.00000E+00  9.000E+00
      24     2     4     4     0     0  8.185621793E+01  2.504836252E-01 -2.299245079E+00  1.149739638E+02  8.070453930E+01  0.00000E+00  9.000E+00
     -11     1     6     6     0     0  5.664634784E+01 -5.375900620E+00 -3.979960223E+01  6.943858703E+01  0.000000000E+00  0.00000E+00  9.000E+00
      12     1     6     6     0     0  2.520987009E+01  5.626384245E+00  3.750035715E+01  4.553537675E+01  6.743495762E-07  0.00000E+00  9.000E+00
      13     1     5     5     0     0 -9.111535277E+01  6.831876480E+01  8.394977605E+01  1.414815395E+02  0.000000000E+00  0.00000E+00  9.000E+00
     -14     1     5     5     0     0  1.238194825E+01  3.145206825E+01  5.382356017E+01  6.355722515E+01  9.536743164E-07  0.00000E+00  9.000E+00
       5     1     4     4   507     0  1.302637573E+02 -1.156137580E+02 -8.770154555E+01  1.950623262E+02  4.750000000E+00  0.00000E+00  9.000E+00
      -5     1     3     3     0   501 -1.195042806E+02 -2.976239614E+00  2.052649097E+02  2.375844623E+02  4.750000000E+00  0.00000E+00  9.000E+00
      21     1     1     2   512   502 -1.388229014E+01  1.856868096E+01 -1.590279972E+02  1.607091092E+02  2.697398305E-06  0.00000E+00  9.000E+00
#rwgt            1          17   19.606533380771577                1     4397619           0           1           0
<weights>
0.14039E+02
</weights>
</event>
<event>
     15  10001 -1.35503E+01  3.46119E+01 -1.00000E+00  3.69257E-01
      21    -1     0     0   502   501  0.000000000E+00  0.000000000E+00  5.471013926E+02  5.471013926E+02  0.000000000E+00  0.00000E+00  9.000E+00
       2    -1     0     0   507     0  0.000000000E+00  0.000000000E+00 -1.333403128E+02  1.333403128E+02  0.000000000E+00  0.00000E+00  9.000E+00
      -6     2     1     2     0   501  3.681665331E+01  8.557536344E+00  3.912525309E+02  4.294984529E+02  1.730944271E+02  0.00000E+00  9.000E+00
       6     2     1     2   507     0 -4.648630491E+01 -4.179126931E+01  6.713662803E+01  1.944662783E+02  1.714710467E+02  0.00000E+00  9.000E+00
     -24     2     3     3     0     0  4.061987846E+00  3.617292942E+01  3.714787480E+02  3.816463210E+02  7.957684054E+01  0.00000E+00  9.000E+00
      24     2     4     4     0     0 -2.010523535E+01  4.314712483E+01  3.413661648E+01  9.943045228E+01  8.034433014E+01  0.00000E+00  9.000E+00
     -11     1     6     6     0     0 -4.587369247E+01  1.344010833E+01  6.932798042E-01  4.780703724E+01  0.000000000E+00  0.00000E+00  9.000E+00
      12     1     6     6     0     0  2.576845712E+01  2.970701651E+01  3.344333668E+01  5.162341504E+01  6.743495762E-07  0.00000E+00  9.000E+00
      13     1     5     5     0     0 -3.074842481E+01  2.401580545E+01  2.846713510E+02  2.873325645E+02  0.000000000E+00  0.00000E+00  9.000E+00
     -14     1     5     5     0     0  3.481041265E+01  1.215712398E+01  8.680739698E+01  9.431375649E+01  1.907348633E-06  0.00000E+00  9.000E+00
       5     1     4     4   511     0 -2.173933964E+01 -6.817456819E+01  2.721324334E+01  7.670393568E+01  4.750000000E+00  0.00000E+00  9.000E+00
      -5     1     3     3     0   512  3.154669507E+01 -2.587451450E+01  2.006220862E+01  4.571366519E+01  4.750000000E+00  0.00000E+00  9.000E+00
       2     1     1     2   502     0  9.669651598E+00  3.323373297E+01 -4.462807912E+01  5.647697421E+01  0.000000000E+00  0.00000E+00  9.000E+00
      21     1     3     3   512   501  1.207970397E+00 -1.740878574E+00 -2.884256414E-01  2.138466750E+00  2.324652785E-07  0.00000E+00  9.000E+00
      21     1     4     4   507   511 -4.641729922E+00 -1.676382595E+01  5.786768208E+00  1.833189034E+01  1.884864366E-07  0.00000E+00  9.000E+00
#rwgt            1          17  -4.3586391043693524                1     4410167           0       11110           0
<weights>
-.17749E+01
</weights>
</event>
<event>
     15  10001  1.35503E+01  2.99174E+01 -1.00000E+00  3.43011E-01
      21    -1     0     0   511   501  0.000000000E+00  0.000000000E+00  2.148558525E+02  2.148558525E+02  0.000000000E+00  0.00000E+00  9.000E+00
      21    -1     0     0   507   502  0.000000000E+00  0.000000000E+00 -2.582293820E+02  2.582293820E+02  0.000000000E+00  0.00000E+00  9.000E+00
      -6     2     1     2     0   501  7.968545878E+01  2.559149026E+01  1.025213959E+02  2.161581213E+02  1.709064074E+02  0.00000E+00  9.000E+00
       6     2     1     2   507     0 -6.628639980E+01  1.157677751E+00 -1.301455373E+02  2.231174106E+02  1.686662118E+02  0.00000E+00  9.000E+00
     -24     2     3     3     0     0  5.105580012E+01  1.516229270E+01 -1.227491522E+01  9.714207075E+01  8.030764920E+01  0.00000E+00  9.000E+00
      24     2     4     4     0     0 -5.462536875E+01 -5.101655597E+01 -3.809219005E+01  1.161859589E+02  8.038371859E+01  0.00000E+00  9.000E+00
     -11     1     6     6     0     0 -3.453149889E+01  5.049376178E+00 -4.419888115E+01  5.631573236E+01  0.000000000E+00  0.00000E+00  9.000E+00
      12     1     6     6     0     0 -2.009386985E+01 -5.606593215E+01  6.106691097E+00  5.987022657E+01  2.233385324E-06  0.00000E+00  9.000E+00
      13     1     5     5     0     0 -2.964079909E+00 -1.711856719E+01  1.993891966E+01  2.644601349E+01  0.000000000E+00  0.00000E+00  9.000E+00
     -14     1     5     5     0     0  5.401988003E+01  3.228085989E+01 -3.221383488E+01  7.069605725E+01  2.654916936E-06  0.00000E+00  9.000E+00
       5     1     4     4   512     0 -1.163957740E+01  5.172821196E+01 -9.219740273E+01  1.064622527E+02  4.750000000E+00  0.00000E+00  9.000E+00
      -5     1     3     3     0   513  2.585040831E+01  1.095986894E+01  1.013098716E+02  1.052359963E+02  4.750000000E+00  0.00000E+00  9.000E+00
      21     1     1     2   511   502 -1.339905898E+01 -2.674916801E+01 -1.574938806E+01  3.380970268E+01  1.143415337E-06  0.00000E+00  9.000E+00
      21     1     3     3   513   501  2.779250357E+00 -5.306713763E-01  1.348643953E+01  1.378005427E+01  3.769728732E-07  0.00000E+00  9.000E+00
      21     1     4     4   507   512 -2.145365830E-02  4.460217627E-01  1.440555099E-01  4.691989580E-01  1.276965179E-08  0.00000E+00  9.000E+00
#rwgt            1          17   40.666374002542312                1     4420434           0       11110           0
<weights>
0.10275E+02
</weights>
</event>
<event>
     15  10001  1.35503E+01  1.09548E+02 -1.00000E+00  4.13781E-01
      21    -1     0     0   502   512  0.000000000E+00  0.000000000E+00  3.389818170E+01  3.389818170E+01  0.000000000E+00  0.00000E+00  9.000E+00
      21    -1     0     0   507   502  0.000000000E+00  0.000000000E+00 -2.870739733E+03  2.870739733E+03  0.000000000E+00  0.00000E+00  9.000E+00
      -6     2     1     2     0   501  1.161024000E+02 -2.099379100E+01 -4.365821199E+02  4.843338145E+02  1.733631733E+02  0.00000E+00  9.000E+00
       6     2     1     2   507     0 -9.838926866E+00 -5.631608833E+00 -9.578570702E+02  9.737477034E+02  1.748310712E+02  0.00000E+00  9.000E+00
     -24     2     3     3     0     0  3.622948022E+00 -4.537447988E+01 -2.148350320E+02  2.343251804E+02  8.174490815E+01  0.00000E+00  9.000E+00
      24     2     4     4     0     0 -6.496166297E+01  1.831556774E+01 -3.808682842E+02  3.932199848E+02  7.075188233E+01  0.00000E+00  9.000E+00
     -11     1     6     6     0     0 -5.203271063E+01 -2.071923629E+01 -2.416938245E+02  2.480979535E+02  0.000000000E+00  0.00000E+00  9.000E+00
      12     1     6     6     0     0 -1.292895233E+01  3.903480403E+01 -1.391744597E+02  1.451220313E+02  0.000000000E+00  0.00000E+00  9.000E+00
      13     1     5     5     0     0 -2.477054681E+01  1.572620553E+00 -1.361899151E+02  1.384331828E+02  0.000000000E+00  0.00000E+00  9.000E+00
     -14     1     5     5     0     0  2.839349483E+01 -4.694710044E+01 -7.864511690E+01  9.589199758E+01  2.523185073E-06  0.00000E+00  9.000E+00
       5     1     4     4   511     0  5.073711452E+01 -2.679611077E+01 -4.878512120E+02  4.912368613E+02  4.750000000E+00  0.00000E+00  9.000E+00
      -5     1     3     3     0   513  1.080249862E+02  2.399873063E+01 -2.096111179E+02  2.370753466E+02  4.750000000E+00  0.00000E+00  9.000E+00
      21     1     1     2   501   512 -1.062634731E+02  2.662539983E+01 -1.442402361E+03  1.446556396E+03  3.411968960E-05  0.00000E+00  9.000E+00
      21     1     4     4   507   511  4.385621576E+00  2.848934197E+00 -8.913757405E+01  8.929085737E+01  9.536743164E-07  0.00000E+00  9.000E+00
      21     1     3     3   513   501  4.454465741E+00  3.819582527E-01 -1.213596998E+01  1.293328745E+01  1.685873940E-07  0.00000E+00  9.000E+00
#rwgt            1          17   23.673048801664031                1     4430721           0       11011           0
<weights>
0.11547E+02
</weights>
</event>
<event>
     13  10001  1.35503E+01  1.36741E+02 -1.00000E+00  1.18009E-01
      21    -1     0     0   507   511  0.000000000E+00  0.000000000E+00  4.260486025E+02  4.260486025E+02  0.000000000E+00  0.00000E+00  9.000E+00
      21    -1     0     0   501   502  0.000000000E+00  0.000000000E+00 -3.351227724E+02  3.351227724E+02  0.000000000E+00  0.00000E+00  9.000E+00
      -6     2     1     2     0   502 -1.507718793E+01  1.976116711E+02 -7.620836767E+00  2.672242481E+02  1.790894398E+02  0.00000E+00  9.000E+00
       6     2     1     2   507     0 -1.365371845E+01 -6.392290207E+01 -1.308201299E+02  2.269128978E+02  1.735021481E+02  0.00000E+00  9.000E+00
     -24     2     3     3     0     0 -6.862188571E+00  1.873883196E+02 -6.015793168E+01  2.128669857E+02  8.082020108E+01  0.00000E+00  9.000E+00
      24     2     4     4     0     0 -7.263983688E+01 -2.919292791E+01 -1.038793826E+02  1.531979086E+02  8.093145326E+01  0.00000E+00  9.000E+00
     -11     1     6     6     0     0  1.436524660E+01 -1.799951103E+01 -1.127528684E+01  2.564127143E+01  0.000000000E+00  0.00000E+00  9.000E+00
      12     1     6     6     0     0 -8.700508348E+01 -1.119341688E+01 -9.260409577E+01  1.275566372E+02  1.907348633E-06  0.00000E+00  9.000E+00
      13     1     5     5     0     0  1.892914099E+01  8.021269359E+01 -6.115522290E+01  1.026272375E+02  0.000000000E+00  0.00000E+00  9.000E+00
     -14     1     5     5     0     0 -2.579132956E+01  1.071756260E+02  9.972912132E-01  1.102397482E+02  2.413022104E-06  0.00000E+00  9.000E+00
       5     1     4     4   507     0  5.898611843E+01 -3.472997416E+01 -2.694074726E+01  7.371498922E+01  4.750000000E+00  0.00000E+00  9.000E+00
      -5     1     3     3     0   502 -8.214999355E+00  1.022335152E+01  5.253709492E+01  5.435726237E+01  4.750000000E+00  0.00000E+00  9.000E+00
      21     1     1     2   501   511  2.873090638E+01 -1.336887691E+02  2.293667968E+02  2.670342290E+02  2.697398305E-06  0.00000E+00  9.000E+00
#rwgt            2         113   4.3816958207858221                1     4439467           0           1           0
<weights>
0.13550E+02
</weights>
</event>
<event>
     14  10001  1.35503E+01  6.52714E+01 -1.00000E+00  4.58263E-01
      21    -1     0     0   502   512  0.000000000E+00  0.000000000E+00  6.379059368E+01  6.379059368E+01  0.000000000E+00  0.00000E+00  9.000E+00
      21    -1     0     0   507   502  0.000000000E+00  0.000000000E+00 -2.131866394E+03  2.131866394E+03  0.000000000E+00  0.00000E+00  9.000E+00
      -6     2     1     2     0   501  1.660882973E+02  1.482556484E+02 -1.073555910E+03  1.109982460E+03  1.731291713E+02  0.00000E+00  9.000E+00
       6     2     1     2   507     0 -1.335372641E+02 -9.168021100E+01 -9.929564234E+02  1.020384449E+03  1.702483555E+02  0.00000E+00  9.000E+00
     -24     2     3     3     0     0  1.720104488E+02  6.942665575E+01 -8.065940829E+02  8.314248255E+02  7.915535981E+01  0.00000E+00  9.000E+00
      24     2     4     4     0     0 -1.135158938E+02 -2.565730632E+01 -4.183791765E+02  4.416604607E+02  8.049019640E+01  0.00000E+00  9.000E+00
     -11     1     6     6     0     0  5.360294135E+00 -6.801588562E-01  5.918601410E-01  5.435592673E+00  0.000000000E+00  0.00000E+00  9.000E+00
      12     1     6     6     0     0 -1.188761879E+02 -2.497714746E+01 -4.189710367E+02  4.362248681E+02  5.394796609E-06  0.00000E+00  9.000E+00
      13     1     5     5     0     0  9.913679224E+01  6.910653340E+01 -6.077331871E+02  6.196316997E+02  0.000000000E+00  0.00000E+00  9.000E+00
     -14     1     5     5     0     0  7.287365658E+01  3.201223469E-01 -1.988608957E+02  2.117931258E+02  2.697398305E-06  0.00000E+00  9.000E+00
       5     1     4     4   507     0 -2.002137033E+01 -6.602290469E+01 -5.745772468E+02  5.787239880E+02  4.750000000E+00  0.00000E+00  9.000E+00
      -5     1     3     3     0   513 -5.797777692E+00  7.606899702E+01 -2.518011330E+02  2.631472584E+02  4.750000000E+00  0.00000E+00  9.000E+00
      21     1     1     2   501   512 -3.255103319E+01 -5.657543740E+01 -1.563466232E+00  6.529007816E+01  1.302467190E-06  0.00000E+00  9.000E+00
      21     1     3     3   513   501 -1.243737968E-01  2.759995639E+00 -1.516069461E+01  1.541037656E+01  1.685873940E-07  0.00000E+00  9.000E+00
#rwgt            1          17   113.04406967072417                1     4442882           0         111           0
<weights>
0.13924E+02
</weights>
</event>
<event>
     15  10001  1.35503E+01  2.31866E+01 -1.00000E+00  1.99809E-01
      21    -1     0     0   511   501  0.000000000E+00  0.000000000E+00  4.686579181E+02  4.686579181E+02  0.000000000E+00  0.00000E+00  9.000E+00
      21    -1     0     0   501   502  0.000000000E+00  0.000000000E+00 -1.564904803E+02  1.564904803E+02  0.000000000E+00  0.00000E+00  9.000E+00
      -6     2     1     2     0   502  5.434986649E+01  1.464968542E+02  8.948298506E+01  2.495397428E+02  1.727647023E+02  0.00000E+00  9.000E+00
       6     2     1     2   507     0 -4.255557218E+01 -1.664596879E+02  2.435111362E+02  3.444418327E+02  1.726924962E+02  0.00000E+00  9.000E+00
     -24     2     3     3     0     0  9.836090655E+01  9.860672303E+01  5.301319908E+01  1.726595142E+02  8.719377729E+01  0.00000E+00  9.000E+00
      24     2     4     4     0     0 -8.470721831E+01 -8.796846017E+01  1.098360600E+02  1.833130420E+02  8.139992909E+01  0.00000E+00  9.000E+00
     -11     1     6     6     0     0 -6.272454798E+01 -1.598239630E+01  7.859732057E+01  1.018201587E+02  0.000000000E+00  0.00000E+00  9.000E+00
      12     1     6     6     0     0 -2.198267033E+01 -7.198606387E+01  3.123873944E+01  8.149288330E+01  1.752011592E-06  0.00000E+00  9.000E+00
      13     1     5     5     0     0  4.044526983E+01  9.044165180E+01  5.652832409E+01  1.140656112E+02  0.000000000E+00  0.00000E+00  9.000E+00
     -14     1     5     5     0     0  5.791563672E+01  8.165071235E+00 -3.515125008E+00  5.859390300E+01  1.820626777E-06  0.00000E+00  9.000E+00
       5     1     4     4   514     0  4.227247308E+01 -7.424734640E+01  1.291338233E+02  1.549120307E+02  4.750000000E+00  0.00000E+00  9.000E+00
      -5     1     3     3     0   512 -3.553686781E+01  3.538160355E+01  3.572319848E+01  6.175302627E+01  4.750000000E+00  0.00000E+00  9.000E+00
      21     1     1     2   511   507 -1.179429431E+01  1.996283370E+01 -2.082668343E+01  3.116682291E+01  4.129530925E-07  0.00000E+00  9.000E+00
      21     1     3     3   512   502 -8.474172251E+00  1.250852759E+01  7.465874971E-01  1.512720234E+01  3.035597323E-07  0.00000E+00  9.000E+00
      21     1     4     4   507   514 -1.208269430E-01 -4.243881302E+00  4.541252917E+00  6.216760066E+00  1.460009660E-07  0.00000E+00  9.000E+00
#rwgt            1          17   29.402587466806267                1     4454448           0       11110           0
<weights>
0.15470E+02
</weights>
</event>
<event>
     15  10001  1.35503E+01  3.05674E+01 -1.00000E+00  5.28996E-01
      21    -1     0     0   512   501  0.000000000E+00  0.000000000E+00  2.123671730E+02  2.123671730E+02  0.000000000E+00  0.00000E+00  9.000E+00
      21    -1     0     0   507   502  0.000000000E+00  0.000000000E+00 -3.401740403E+02  3.401740403E+02  0.000000000E+00  0.00000E+00  9.000E+00
      -6     2     1     2     0   501 -1.041871086E+02  5.199051233E+00 -1.357955540E+00  2.010680602E+02  1.718852439E+02  0.00000E+00  9.000E+00
       6     2     1     2   507     0  1.280961931E+02 -2.424424446E+01 -1.860196095E+02  2.845177072E+02  1.713202046E+02  0.00000E+00  9.000E+00
     -24     2     3     3     0     0 -2.276688205E+01 -3.494746455E+01  4.291259828E+01  9.991850890E+01  8.001600548E+01  0.00000E+00  9.000E+00
      24     2     4     4     0     0  7.071215612E+01 -7.902601036E+01 -1.272875893E+02  1.839476594E+02  7.993304475E+01  0.00000E+00  9.000E+00
     -11     1     6     6     0     0  4.928694998E+01 -3.346358892E+01 -1.582270297E+01  6.163905540E+01  0.000000000E+00  0.00000E+00  9.000E+00
      12     1     6     6     0     0  2.142520615E+01 -4.556242143E+01 -1.114648864E+02  1.223086040E+02  2.336015456E-06  0.00000E+00  9.000E+00
      13     1     5     5     0     0 -2.972483119E+01  1.171340092E+01  4.195099661E+01  5.273192076E+01  0.000000000E+00  0.00000E+00  9.000E+00
     -14     1     5     5     0     0  6.957949138E+00 -4.666086546E+01  9.616016665E-01  4.718658814E+01  1.445489444E-06  0.00000E+00  9.000E+00
       5     1     4     4   511     0  3.057191378E+01  3.842927504E+01 -2.848975339E+01  5.697086660E+01  4.750000000E+00  0.00000E+00  9.000E+00
      -5     1     3     3     0   513 -6.777849477E+01  3.357006354E+01 -3.762705118E+01  8.461223906E+01  4.750000000E+00  0.00000E+00  9.000E+00
      21     1     1     2   512   502 -2.390908449E+01  1.904519323E+01  5.957069769E+01  6.695544586E+01  0.000000000E+00  0.00000E+00  9.000E+00
      21     1     4     4   507   511  2.681212316E+01  1.635249086E+01 -3.024226674E+01  4.359918122E+01  4.768371582E-07  0.00000E+00  9.000E+00
      21     1     3     3   513   501 -1.364173176E+01  6.576452243E+00 -6.643502635E+00  1.653731226E+01  3.264680848E-07  0.00000E+00  9.000E+00
#rwgt            1          17   22.377218733059379                1     4461245           0       11011           0
<weights>
0.16276E+02
</weights>
</event>
<event>
     15  10001  1.35503E+01  1.39996E+02 -1.00000E+00  2.77542E-01
      21    -1     0     0   511   501  0.000000000E+00  0.000000000E+00  1.173622667E+02  1.173622667E+02  0.000000000E+00  0.00000E+00  9.000E+00
      21    -1     0     0   501   502  0.000000000E+00  0.000000000E+00 -7.057650695E+02  7.057650695E+02  0.000000000E+00  0.00000E+00  9.000E+00
      -6     2     1     2     0   502  1.138873083E+02  5.971755106E+01 -2.054445991E+02  3.243453793E+02  2.155363934E+02  0.00000E+00  9.000E+00
       6     2     1     2   507     0  2.226907061E+01 -2.715713700E+01 -2.475839638E+02  3.040387288E+02  1.729401858E+02  0.00000E+00  9.000E+00
     -24     2     3     3     0     0  1.512465757E+02  1.404573456E+01 -9.015987231E+01  1.941539487E+02  8.058625131E+01  0.00000E+00  9.000E+00
      24     2     4     4     0     0 -3.077305304E+01  1.466673595E+01 -6.713631342E+01  1.112837452E+02  8.194323301E+01  0.00000E+00  9.000E+00
     -11     1     6     6     0     0  2.189718763E+00  1.265734320E+01 -7.601047965E+01  7.708823659E+01  0.000000000E+00  0.00000E+00  9.000E+00
      12     1     6     6     0     0 -3.296277181E+01  2.009392747E+00  8.874166230E+00  3.419550863E+01  1.643186659E-06  0.00000E+00  9.000E+00
      13     1     5     5     0     0  3.455688078E+01  3.953499120E+01 -2.736322883E+01  5.921097728E+01  0.000000000E+00  0.00000E+00  9.000E+00
     -14     1     5     5     0     0  1.166896949E+02 -2.548925664E+01 -6.279664349E+01  1.349429714E+02  1.784161275E-06  0.00000E+00  9.000E+00
       5     1     4     4   514     0  4.745859608E+01 -3.767478301E+01 -1.637433305E+02  1.746600939E+02  4.750000000E+00  0.00000E+00  9.000E+00
      -5     1     3     3     0   512 -3.511100737E+01  4.526932905E+01 -1.055176940E+02  1.201608973E+02  4.750000000E+00  0.00000E+00  9.000E+00
      21     1     1     2   511   507 -1.361563789E+02 -3.256041406E+01 -1.353742399E+02  1.947432282E+02  4.264961200E-06  0.00000E+00  9.000E+00
      21     1     3     3   512   502 -2.248260026E+00  4.024874554E-01 -9.767032721E+00  1.003053326E+01  1.192092896E-07  0.00000E+00  9.000E+00
      21     1     4     4   507   514  5.583527574E+00 -4.149089941E+00 -1.670431994E+01  1.809488967E+01  2.384185791E-07  0.00000E+00  9.000E+00
#rwgt            1          17   33.876460653730518                1     4466574           0       11110           0
<weights>
0.15474E+02
</weights>
</event>
<event>
     15  10001  1.35503E+01  3.62723E+00 -1.00000E+00  5.23049E-01
      21    -1     0     0   502   511  0.000000000E+00  0.000000000E+00  2.226677074E+02  2.226677074E+02  0.000000000E+00  0.00000E+00  9.000E+00
      21    -1     0     0   507   502  0.000000000E+00  0.000000000E+00 -6.064910660E+02  6.064910660E+02  0.000000000E+00  0.00000E+00  9.000E+00
      -6     2     1     2     0   501  1.389097521E+02 -3.094272456E+01 -9.929500993E+01  2.439471202E+02  1.714564872E+02  0.00000E+00  9.000E+00
       6     2     1     2   507     0 -1.365390819E+02  2.819741287E+01 -4.107502110E+02  4.589376839E+02  1.499001229E+02  0.00000E+00  9.000E+00
     -24     2     3     3     0     0  1.271409162E+02 -6.239071912E+01 -1.214362044E+02  2.029762795E+02  7.997001884E+01  0.00000E+00  9.000E+00
      24     2     4     4     0     0 -1.195877763E+02  2.529810414E+01 -2.354424470E+02  2.787309612E+02  8.553696620E+01  0.00000E+00  9.000E+00
     -11     1     6     6     0     0 -3.677508367E+01  4.956534109E+01 -1.157161192E+02  1.311462926E+02  0.000000000E+00  0.00000E+00  9.000E+00
      12     1     6     6     0     0 -8.281269267E+01 -2.426723695E+01 -1.197263278E+02  1.475846687E+02  3.303624740E-06  0.00000E+00  9.000E+00
      13     1     5     5     0     0 -5.231990033E+00 -1.920257273E+01 -3.135330900E+01  3.713680795E+01  0.000000000E+00  0.00000E+00  9.000E+00
     -14     1     5     5     0     0  1.323729063E+02 -4.318814639E+01 -9.008289536E+01  1.658394716E+02  2.861022949E-06  0.00000E+00  9.000E+00
       5     1     4     4   512     0  2.306507481E+00 -1.643729427E-01 -1.762251153E+00  5.569113426E+00  4.750000000E+00  0.00000E+00  9.000E+00
      -5     1     3     3     0   513  1.112767418E+01  3.125002120E+01  2.071910884E+01  3.939838739E+01  4.750000000E+00  0.00000E+00  9.000E+00
      21     1     4     4   507   512 -1.925781300E+01  3.063681673E+00 -1.735455129E+02  1.746376092E+02  0.000000000E+00  0.00000E+00  9.000E+00
      21     1     1     2   501   511 -2.370670273E+00  2.745311691E+00  1.262218623E+02  1.262739694E+02  2.336015456E-06  0.00000E+00  9.000E+00
      21     1     3     3   513   501  6.411617237E-01  1.979733633E-01  1.422085579E+00  1.572453244E+00  0.000000000E+00  0.00000E+00  9.000E+00
#rwgt            1          17   433.91590065374288                1     4486098           0      100111           0
<weights>
0.66093E+01
</weights>
</event>
<event>
     13  10001  1.35503E+01  2.22368E+02 -1.00000E+00  1.09997E-01
       3    -1     0     0   507     0  0.000000000E+00  0.000000000E+00  1.568181347E+03  1.568181347E+03  0.000000000E+00  0.00000E+00  9.000E+00
      -3    -1     0     0     0   511  0.000000000E+00  0.000000000E+00 -1.418868551E+02  1.418868551E+02  0.000000000E+00  0.00000E+00  9.000E+00
      -6     2     1     2     0   502  2.487086898E+01 -5.404702651E+01  1.095251951E+03  1.110365244E+03  1.726108258E+02  0.00000E+00  9.000E+00
       6     2     1     2   507     0  5.354050107E+01 -1.540373382E+02  5.804595536E+01  2.476027148E+02  1.770414771E+02  0.00000E+00  9.000E+00
     -24     2     3     3     0     0  1.063226834E+01 -3.581549189E-02  2.219435857E+02  2.352595289E+02  7.729841084E+01  0.00000E+00  9.000E+00
      24     2     4     4     0     0  5.015434222E+00 -2.826979219E+01  7.353843862E+01  1.118281322E+02  7.920412530E+01  0.00000E+00  9.000E+00
     -11     1     6     6     0     0  3.677012428E+01 -2.078635737E+01  1.501999226E+01  4.482984340E+01  0.000000000E+00  0.00000E+00  9.000E+00
      12     1     6     6     0     0 -3.175469005E+01 -7.483434821E+00  5.851844636E+01  6.699828880E+01  1.651812370E-06  0.00000E+00  9.000E+00
      13     1     5     5     0     0  3.759911658E+01  2.168002964E+01  1.229024227E+02  1.303407947E+02  0.000000000E+00  0.00000E+00  9.000E+00
     -14     1     5     5     0     0 -2.696684824E+01 -2.171584513E+01  9.904116292E+01  1.049187342E+02  1.907348633E-06  0.00000E+00  9.000E+00
       5     1     4     4   507     0  4.852506685E+01 -1.257675460E+02 -1.549248327E+01  1.357745826E+02  4.750000000E+00  0.00000E+00  9.000E+00
      -5     1     3     3     0   502  1.423860065E+01 -5.401121101E+01  8.733083653E+02  8.751057148E+02  4.750000000E+00  0.00000E+00  9.000E+00
      21     1     1     2   502   511 -7.841137006E+01  2.080843647E+02  2.729965857E+02  3.521002437E+02  3.814697266E-06  0.00000E+00  9.000E+00
#rwgt            2          74   1.3645968463262988E-003           1     4507747           0           1           0
<weights>
0.13550E+02
</weights>
</event>
<event>
     15  10001  1.35503E+01  1.14295E+01 -1.00000E+00  1.51591E-01
      -2    -1     0     0     0   501  0.000000000E+00  0.000000000E+00  1.085991628E+01  1.085991628E+01  0.000000000E+00  0.00000E+00  9.000E+00
       2    -1     0     0   513     0  0.000000000E+00  0.000000000E+00 -5.081278666E+03  5.081278666E+03  0.000000000E+00  0.00000E+00  9.000E+00
      -6     2     1     2     0   501  2.070415658E+01  6.100818770E+01 -3.882091542E+03  3.886458908E+03  1.725613992E+02  0.00000E+00  9.000E+00
       6     2     1     2   507     0 -2.563310422E+01 -7.132029534E+01 -1.033928425E+03  1.050858429E+03  1.719063969E+02  0.00000E+00  9.000E+00
     -24     2     3     3     0     0  2.855978833E+01  8.468409107E+01 -2.948715970E+03  2.951154385E+03  7.999547899E+01  0.00000E+00  9.000E+00
      24     2     4     4     0     0  3.414480569E+01 -9.528274482E+01 -6.834377193E+02  6.943865471E+02  6.957651500E+01  0.00000E+00  9.000E+00
     -11     1     6     6     0     0 -1.675974265E+01 -2.015720785E+01 -2.609098226E+02  2.622234497E+02  0.000000000E+00  0.00000E+00  9.000E+00
      12     1     6     6     0     0  5.090454835E+01 -7.512553697E+01 -4.225278967E+02  4.321630975E+02  7.629394531E-06  0.00000E+00  9.000E+00
      13     1     5     5     0     0  2.429581162E+01  5.589183656E+01 -8.284414046E+02  8.306800496E+02  0.000000000E+00  0.00000E+00  9.000E+00
     -14     1     5     5     0     0  4.263976710E+00  2.879225452E+01 -2.120274565E+03  2.120474336E+03  5.285799584E-05  0.00000E+00  9.000E+00
       5     1     4     4   511     0 -5.883183850E+01  2.354103957E+01 -3.368050167E+02  3.427470605E+02  4.750000000E+00  0.00000E+00  9.000E+00
      -5     1     3     3     0   512 -2.845201994E+01 -2.635894971E+01 -5.728717828E+02  5.742028855E+02  4.750000000E+00  0.00000E+00  9.000E+00
      21     1     3     3   512   501  2.059638819E+01  2.683046337E+00 -3.605037896E+02  3.611016371E+02  9.344061824E-06  0.00000E+00  9.000E+00
      21     1     1     2   513   507  4.928947638E+00  1.031210764E+01 -1.543987822E+02  1.548212454E+02  3.814697266E-06  0.00000E+00  9.000E+00
      21     1     4     4   507   511 -9.460714148E-01  4.214099110E-01 -1.368568905E+01  1.372482139E+01  0.000000000E+00  0.00000E+00  9.000E+00
#rwgt            1           6   5.5593643251964288E-002           1     4510969           0      110110           0
<weights>
0.17249E+00
</weights>
</event>
<event>
     13  10001 -1.35503E+01  9.94090E+01 -1.00000E+00  7.50341E-01
      21    -1     0     0   507   501  0.000000000E+00  0.000000000E+00  3.563525577E+01  3.563525577E+01  0.000000000E+00  0.00000E+00  9.000E+00
      -2    -1     0     0     0   502  0.000000000E+00  0.000000000E+00 -5.177826579E+03  5.177826579E+03  0.000000000E+00  0.00000E+00  9.000E+00
      -6     2     1     2     0   502  9.674049510E+01 -1.403025975E+01 -5.297748612E+02  5.656253936E+02  1.723807145E+02  0.00000E+00  9.000E+00
       6     2     1     2   507     0 -9.186035322E+00 -3.304807103E+01 -4.339424977E+02  4.681801368E+02  1.723658635E+02  0.00000E+00  9.000E+00
     -24     2     3     3     0     0  2.170737426E+01  1.880381275E+01 -1.099271903E+02  1.378372745E+02  7.804058953E+01  0.00000E+00  9.000E+00
      24     2     4     4     0     0  4.985324698E+01  1.235698028E+01 -3.139638418E+02  3.268836544E+02  7.511050791E+01  0.00000E+00  9.000E+00
     -11     1     6     6     0     0 -1.269456470E+01  6.433742284E-02 -1.563940618E+02  1.569084404E+02  0.000000000E+00  0.00000E+00  9.000E+00
      12     1     6     6     0     0  6.254781168E+01  1.229264285E+01 -1.575697800E+02  1.699752140E+02  1.907348633E-06  0.00000E+00  9.000E+00
      13     1     5     5     0     0  4.178631037E+01 -7.159486914E+00 -8.988182910E+01  9.937855498E+01  0.000000000E+00  0.00000E+00  9.000E+00
     -14     1     5     5     0     0 -2.007893611E+01  2.596329966E+01 -2.004536119E+01  3.845871955E+01  2.145767212E-06  0.00000E+00  9.000E+00
       5     1     4     4   507     0 -5.903928230E+01 -4.540505131E+01 -1.199786560E+02  1.412964824E+02  4.750000000E+00  0.00000E+00  9.000E+00
      -5     1     3     3     0   502  7.503312084E+01 -3.283407250E+01 -4.198476710E+02  4.277881191E+02  4.750000000E+00  0.00000E+00  9.000E+00
      -2     1     1     2     0   501 -8.755445978E+01  4.707833078E+01 -4.178473964E+03  4.179656304E+03  0.000000000E+00  0.00000E+00  9.000E+00
#rwgt            1          17  -8.3512367202842768                1     4516498           0           1           0
<weights>
-.14452E+02
</weights>
</event>
<event>
     15  10001  1.35503E+01  6.70567E+00 -1.00000E+00  5.27487E-01
      -1    -1     0     0     0   512  0.000000000E+00  0.000000000E+00  2.330182062E+01  2.330182062E+01  0.000000000E+00  0.00000E+00  9.000E+00
       1    -1     0     0   507     0  0.000000000E+00  0.000000000E+00 -1.646551220E+03  1.646551220E+03  0.000000000E+00  0.00000E+00  9.000E+00
      -6     2     1     2     0   501  1.204139782E-01  7.519471223E+01 -8.554342199E+02  8.757909062E+02  1.720108936E+02  0.00000E+00  9.000E+00
       6     2     1     2   507     0  5.520806470E+00 -7.156943614E+01 -6.563306108E+02  6.823760787E+02  1.723791710E+02  0.00000E+00  9.000E+00
     -24     2     3     3     0     0 -1.350390392E+01  7.251742336E+01 -2.946956115E+02  3.148485169E+02  8.272214383E+01  0.00000E+00  9.000E+00
      24     2     4     4     0     0  4.850234191E+01 -8.249122233E+01 -3.532101978E+02  3.746112802E+02  8.011796582E+01  0.00000E+00  9.000E+00
     -11     1     6     6     0     0 -3.480079338E+00 -1.969346353E+01 -2.005804776E+02  2.015749773E+02  0.000000000E+00  0.00000E+00  9.000E+00
      12     1     6     6     0     0  5.198242125E+01 -6.279775880E+01 -1.526297202E+02  1.730363029E+02  4.672030912E-06  0.00000E+00  9.000E+00
      13     1     5     5     0     0 -4.081264490E+01  2.779468328E+01 -8.136198231E+01  9.517346567E+01  0.000000000E+00  0.00000E+00  9.000E+00
     -14     1     5     5     0     0  2.730874098E+01  4.472274008E+01 -2.133336292E+02  2.196750513E+02  3.814697266E-06  0.00000E+00  9.000E+00
       5     1     4     4   511     0 -4.284314503E+01  1.538814918E+01 -2.301109038E+02  2.346186710E+02  4.750000000E+00  0.00000E+00  9.000E+00
      -5     1     3     3     0   513  1.216496482E+01  1.384046154E+00 -5.003152557E+02  5.004875818E+02  4.750000000E+00  0.00000E+00  9.000E+00
      21     1     4     4   507   511 -1.383904093E-01 -4.466362991E+00 -7.300950914E+01  7.314612755E+01  0.000000000E+00  0.00000E+00  9.000E+00
      21     1     1     2   501   512 -5.641220448E+00 -3.625276097E+00 -1.114845688E+02  1.116860559E+02  0.000000000E+00  0.00000E+00  9.000E+00
      21     1     3     3   513   501  1.459353081E+00  1.293242724E+00 -6.042335271E+01  6.045480742E+01  6.743495762E-07  0.00000E+00  9.000E+00
#rwgt            1           2   2.0272832419045916                1     4529347           0      100111           0
<weights>
0.12175E+02
</weights>
</event>
<event>
     15  10001  1.35503E+01  2.16201E+01 -1.00000E+00  1.84684E-01
      21    -1     0     0   512   501  0.000000000E+00  0.000000000E+00  4.917433869E+02  4.917433869E+02  0.000000000E+00  0.00000E+00  9.000E+00
      21    -1     0     0   501   502  0.000000000E+00  0.000000000E+00 -8.558701899E+01  8.558701899E+01  0.000000000E+00  0.00000E+00  9.000E+00
      -6     2     1     2     0   502 -7.869357224E+01 -2.551784392E+01  1.170663601E+02  2.247204024E+02  1.730632483E+02  0.00000E+00  9.000E+00
       6     2     1     2   507     0  6.856762387E+01  6.415687738E+00  2.918852462E+02  3.308099907E+02  1.396265478E+02  0.00000E+00  9.000E+00
     -24     2     3     3     0     0  1.901848817E+01 -1.379333235E+01  2.134837956E+01  8.616636680E+01  8.010574603E+01  0.00000E+00  9.000E+00
      24     2     4     4     0     0  6.415931958E+01 -2.895116816E+00  1.156911337E+02  1.542166599E+02  7.920568021E+01  0.00000E+00  9.000E+00
     -11     1     6     6     0     0  2.162991186E+01  3.457490198E+00  1.084131405E+02  1.106038714E+02  0.000000000E+00  0.00000E+00  9.000E+00
      12     1     6     6     0     0  4.252940772E+01 -6.352607014E+00  7.277993190E+00  4.361278851E+01  8.128989754E-07  0.00000E+00  9.000E+00
      13     1     5     5     0     0 -2.130339980E+01 -8.799131488E-01 -1.834726587E+01  2.812883316E+01  0.000000000E+00  0.00000E+00  9.000E+00
     -14     1     5     5     0     0  4.032188797E+01 -1.291341920E+01  3.969564542E+01  5.803753364E+01  6.743495762E-07  0.00000E+00  9.000E+00
       5     1     4     4   514     0  2.407469953E+00  7.148112451E+00  1.296369261E+02  1.299430126E+02  4.750000000E+00  0.00000E+00  9.000E+00
      -5     1     3     3     0   511 -6.738733209E+01 -1.619385463E+01  6.426551889E+01  9.463568498E+01  4.750000000E+00  0.00000E+00  9.000E+00
      21     1     1     2   512   507  1.012594837E+01  1.910215619E+01 -2.795238455E+00  2.180001283E+01  8.118056340E-07  0.00000E+00  9.000E+00
      21     1     3     3   511   502 -3.032472832E+01  4.469343056E+00  3.145246164E+01  4.391835058E+01  6.743495762E-07  0.00000E+00  9.000E+00
      21     1     4     4   507   514  2.000834337E+00  2.162692104E+00  4.655718641E+01  4.665031813E+01  6.743495762E-07  0.00000E+00  9.000E+00
#rwgt            1          17   254.17703585189349                1     4537367           0       11110           0
<weights>
0.19911E+02
</weights>
</event>
<event>
     15  10001  1.35503E+01  1.89862E+01 -1.00000E+00  1.72455E-01
      21    -1     0     0   507   511  0.000000000E+00  0.000000000E+00  5.335052441E+02  5.335052441E+02  0.000000000E+00  0.00000E+00  9.000E+00
      21    -1     0     0   501   502  0.000000000E+00  0.000000000E+00 -1.110183257E+02  1.110183257E+02  0.000000000E+00  0.00000E+00  9.000E+00
      -6     2     1     2     0   502 -3.728924071E+01 -1.406140776E+01  3.434829833E+01  1.794195748E+02  1.715324096E+02  0.00000E+00  9.000E+00
       6     2     1     2   507     0  4.980699373E+01  2.833665199E+01  4.023128896E+02  4.414103955E+02  1.723478277E+02  0.00000E+00  9.000E+00
     -24     2     3     3     0     0 -6.833467830E+01 -5.374453036E+01  1.405639367E+01  1.192936855E+02  8.046923880E+01  0.00000E+00  9.000E+00
      24     2     4     4     0     0 -2.963219353E+01 -1.277344763E+01  2.261160854E+02  2.428718016E+02  8.256512624E+01  0.00000E+00  9.000E+00
     -11     1     6     6     0     0 -6.141987437E+00 -4.176656030E+01  6.510974706E+01  7.759799438E+01  0.000000000E+00  0.00000E+00  9.000E+00
      12     1     6     6     0     0 -2.349020610E+01  2.899311266E+01  1.610063384E+02  1.652738072E+02  0.000000000E+00  0.00000E+00  9.000E+00
      13     1     5     5     0     0 -4.168752130E+01 -1.269076246E+01  4.399207278E+01  6.192097667E+01  0.000000000E+00  0.00000E+00  9.000E+00
     -14     1     5     5     0     0 -2.664715700E+01 -4.105376790E+01 -2.993567911E+01  5.737270883E+01  2.477718555E-06  0.00000E+00  9.000E+00
       5     1     4     4   513     0  6.339161559E+01  2.603180865E+01  1.214737712E+02  1.395513941E+02  4.750000000E+00  0.00000E+00  9.000E+00
      -5     1     3     3     0   512  1.519410756E+01  3.670311016E+01  1.091414867E+01  4.146878755E+01  4.750000000E+00  0.00000E+00  9.000E+00
      21     1     1     2   501   511 -1.251775302E+01 -1.427524423E+01 -1.417426956E+01  2.369359947E+01  8.920806376E-07  0.00000E+00  9.000E+00
      21     1     3     3   512   502  1.585133003E+01  2.980012444E+00  9.377755991E+00  1.865710174E+01  6.307962682E-07  0.00000E+00  9.000E+00
      21     1     4     4   507   513  1.604757167E+01  1.507829097E+01  5.472303291E+01  5.898719984E+01  1.348699152E-06  0.00000E+00  9.000E+00
#rwgt            1          17   18.042450466045910                1     4545905           0       11110           0
<weights>
0.16425E+02
</weights>
</event>
<event>
     15  10001  1.35503E+01  6.93212E+01 -1.00000E+00  2.16051E-01
      21    -1     0     0   502   512  0.000000000E+00  0.000000000E+00  2.373247587E+03  2.373247587E+03  0.000000000E+00  0.00000E+00  9.000E+00
      21    -1     0     0   507   502  0.000000000E+00  0.000000000E+00 -4.855079993E+01  4.855079993E+01  0.000000000E+00  0.00000E+00  9.000E+00
      -6     2     1     2     0   501 -1.820479736E+02 -3.230177321E+01  1.804448219E+03  1.822022504E+03  1.718946232E+02  0.00000E+00  9.000E+00
       6     2     1     2   507     0  1.127764038E+02  3.492425151E+01  2.788075116E+02  3.485803185E+02  1.727321316E+02  0.00000E+00  9.000E+00
     -24     2     3     3     0     0 -1.308761957E+02 -3.944944853E+01  7.689288021E+02  7.851471641E+02  8.074483899E+01  0.00000E+00  9.000E+00
      24     2     4     4     0     0  7.415621352E+01 -3.732200457E+01  2.154726486E+02  2.443556122E+02  7.993201405E+01  0.00000E+00  9.000E+00
     -11     1     6     6     0     0  8.224415893E+01 -4.945703459E+01  2.051530533E+02  2.264903425E+02  0.000000000E+00  0.00000E+00  9.000E+00
      12     1     6     6     0     0 -8.087945415E+00  1.213503002E+01  1.031959533E+01  1.786526973E+01  6.848052319E-07  0.00000E+00  9.000E+00
      13     1     5     5     0     0 -1.191768637E+01  1.080575013E+01  2.267402354E+01  2.780120191E+01  0.000000000E+00  0.00000E+00  9.000E+00
     -14     1     5     5     0     0 -1.189585093E+02 -5.025519867E+01  7.462547785E+02  7.573459622E+02  1.078959322E-05  0.00000E+00  9.000E+00
       5     1     4     4   514     0  3.880727009E+01  6.765880745E+01  6.053373661E+01  9.884641726E+01  4.750000000E+00  0.00000E+00  9.000E+00
      -5     1     3     3     0   511 -4.264408662E+01  3.438218237E+00  7.801196520E+02  7.813063249E+02  4.750000000E+00  0.00000E+00  9.000E+00
      21     1     1     2   501   512  6.927156985E+01 -2.622478305E+00  2.414410568E+02  2.511955647E+02  5.394796609E-06  0.00000E+00  9.000E+00
      21     1     3     3   511   501 -8.527691362E+00  3.709457091E+00  2.553997647E+02  2.555690149E+02  5.394796609E-06  0.00000E+00  9.000E+00
      21     1     4     4   507   514 -1.870798082E-01  4.587448628E+00  2.801126400E+00  5.378289029E+00  1.228781231E-07  0.00000E+00  9.000E+00
#rwgt            1          17   24.117434725663664                1     4550353           0       11110           0
<weights>
0.12371E+02
</weights>
</event>
<event>
     13  10001 -1.35503E+01  6.52991E+01 -1.00000E+00  7.52621E-01
      21    -1     0     0   507   511  0.000000000E+00  0.000000000E+00  1.847954594E+02  1.847954594E+02  0.000000000E+00  0.00000E+00  9.000E+00
      21    -1     0     0   501   502  0.000000000E+00  0.000000000E+00 -1.364466975E+03  1.364466975E+03  0.000000000E+00  0.00000E+00  9.000E+00
      -6     2     1     2     0   502  1.473261180E+01 -5.730281907E+01 -2.071331428E+02  2.760705348E+02  1.726561276E+02  0.00000E+00  9.000E+00
       6     2     1     2   507     0  4.887925829E+01  7.205095447E+01  8.690505626E+01  2.117380113E+02  1.723368060E+02  0.00000E+00  9.000E+00
     -24     2     3     3     0     0  5.862335811E+01 -2.616212834E+01 -1.929706438E+02  2.202200280E+02  8.448689995E+01  0.00000E+00  9.000E+00
      24     2     4     4     0     0 -2.376655200E+01 -7.835797870E+00  3.177809906E+01  9.040849774E+01  8.085542753E+01  0.00000E+00  9.000E+00
     -11     1     6     6     0     0 -4.731473120E+01 -2.668206097E+00  4.284004763E+01  6.388327475E+01  0.000000000E+00  0.00000E+00  9.000E+00
      12     1     6     6     0     0  2.354817920E+01 -5.167591773E+00 -1.106194857E+01  2.652522298E+01  7.907449699E-07  0.00000E+00  9.000E+00
      13     1     5     5     0     0  9.964368050E+00  2.421639598E+01 -1.025763655E+02  1.058661099E+02  0.000000000E+00  0.00000E+00  9.000E+00
     -14     1     5     5     0     0  4.865899006E+01 -5.037852432E+01 -9.039427838E+01  1.143539181E+02  2.132480600E-06  0.00000E+00  9.000E+00
       5     1     4     4   507     0  7.264581030E+01  7.988675234E+01  5.512695720E+01  1.213295136E+02  4.750000000E+00  0.00000E+00  9.000E+00
      -5     1     3     3     0   502 -4.389074631E+01 -3.114069073E+01 -1.416249895E+01  5.585050678E+01  4.750000000E+00  0.00000E+00  9.000E+00
      21     1     1     2   501   511 -6.361187009E+01 -1.474813540E+01 -1.059443429E+03  1.061453888E+03  0.000000000E+00  0.00000E+00  9.000E+00
#rwgt            1          17  -12.366334697315617                1     4556418           0           1           0
<weights>
-.14022E+02
</weights>
</event>
<event>
     15  10001 -1.35503E+01  2.26997E+01 -1.00000E+00  2.83360E-01
      21    -1     0     0   512   501  0.000000000E+00  0.000000000E+00  3.166190965E+02  3.166190965E+02  0.000000000E+00  0.00000E+00  9.000E+00
      21    -1     0     0   507   502  0.000000000E+00  0.000000000E+00 -8.060922650E+02  8.060922650E+02  0.000000000E+00  0.00000E+00  9.000E+00
      -6     2     1     2     0   501  2.158446104E+02  3.059815500E+01  1.723965989E+02  3.271321201E+02  1.725389630E+02  0.00000E+00  9.000E+00
       6     2     1     2   507     0 -2.266740851E+02 -5.054806949E+01 -6.964996162E+02  7.541726834E+02  1.724194676E+02  0.00000E+00  9.000E+00
     -24     2     3     3     0     0  1.078834246E+02 -1.836783333E+01  1.540846916E+02  2.062742804E+02  8.264850860E+01  0.00000E+00  9.000E+00
      24     2     4     4     0     0 -1.419566920E+02 -9.199097795E+01 -3.742273945E+02  4.182419889E+02  7.915918208E+01  0.00000E+00  9.000E+00
     -11     1     6     6     0     0 -5.078768688E+00 -3.656049304E+01 -5.181093362E+01  6.361474974E+01  0.000000000E+00  0.00000E+00  9.000E+00
      12     1     6     6     0     0 -1.368779233E+02 -5.543048492E+01 -3.224164608E+02  3.546272392E+02  6.607249480E-06  0.00000E+00  9.000E+00
      13     1     5     5     0     0  1.854459758E+01 -3.623028890E+01  2.334212933E+01  4.691898267E+01  0.000000000E+00  0.00000E+00  9.000E+00
     -14     1     5     5     0     0  8.933882698E+01  1.786245557E+01  1.307425623E+02  1.593552977E+02  6.877043296E-06  0.00000E+00  9.000E+00
       5     1     4     4   513     0 -5.465421172E+01  2.258845991E+01 -2.023388323E+02  2.108575039E+02  4.750000000E+00  0.00000E+00  9.000E+00
      -5     1     3     3     0   511  1.070382854E+02  4.739282773E+01  1.937222081E+01  1.187481373E+02  4.750000000E+00  0.00000E+00  9.000E+00
      21     1     1     2   512   502  1.082947472E+01  1.994991449E+01  3.462984883E+01  4.140655795E+01  4.768371582E-07  0.00000E+00  9.000E+00
      21     1     4     4   507   513 -3.006318142E+01  1.885444855E+01 -1.199333895E+02  1.250731906E+02  1.348699152E-06  0.00000E+00  9.000E+00
      21     1     3     3   511   501  9.229004420E-01  1.573160596E+00 -1.060313555E+00  2.109702425E+00  4.470348358E-08  0.00000E+00  9.000E+00
#rwgt            1          17  -43.526857385492008                1     4572699           0       11011           0
<weights>
-.12462E+02
</weights>
</event>
<event>
     15  10001 -1.35503E+01  7.93713E+00 -1.00000E+00  2.20677E-01
      21    -1     0     0   511   501  0.000000000E+00  0.000000000E+00  8.300157250E+01  8.300157250E+01  0.000000000E+00  0.00000E+00  9.000E+00
      21    -1     0     0   507   502  0.000000000E+00  0.000000000E+00 -7.824730315E+02  7.824730315E+02  0.000000000E+00  0.00000E+00  9.000E+00
      -6     2     1     2     0   501  5.709323757E+00 -1.093783109E+01 -3.195548038E+01  1.741173018E+02  1.707145264E+02  0.00000E+00  9.000E+00
       6     2     1     2   507     0  2.181856759E+00  1.008503957E+01 -6.373365858E+02  6.601516339E+02  1.717433773E+02  0.00000E+00  9.000E+00
     -24     2     3     3     0     0  6.355505324E+01 -2.062637464E+01 -1.177129927E-01  1.046750188E+02  8.057390131E+01  0.00000E+00  9.000E+00
      24     2     4     4     0     0  6.685712265E+01 -7.907123487E+00 -3.571256321E+02  3.718751911E+02  7.886725065E+01  0.00000E+00  9.000E+00
     -11     1     6     6     0     0 -8.060524544E-01 -8.263649561E+00 -2.074439676E+02  2.076100607E+02  0.000000000E+00  0.00000E+00  9.000E+00
      12     1     6     6     0     0  6.766317511E+01  3.565260744E-01 -1.496816645E+02  1.642651304E+02  2.697398305E-06  0.00000E+00  9.000E+00
      13     1     5     5     0     0  4.713921394E+01 -4.982668106E+01 -1.096872422E+01  6.946305887E+01  0.000000000E+00  0.00000E+00  9.000E+00
     -14     1     5     5     0     0  1.641583930E+01  2.920030641E+01  1.085101123E+01  3.521195989E+01  1.425535767E-06  0.00000E+00  9.000E+00
       5     1     4     4   513     0 -6.278682932E+01  1.763744917E+01 -2.761146047E+02  2.837518335E+02  4.750000000E+00  0.00000E+00  9.000E+00
      -5     1     3     3     0   512 -5.530425474E+01  8.559745317E+00 -2.391127051E+01  6.104212636E+01  4.750000000E+00  0.00000E+00  9.000E+00
      21     1     1     2   511   502 -7.891180516E+00  8.527915164E-01 -3.017939278E+01  3.120566827E+01  0.000000000E+00  0.00000E+00  9.000E+00
      21     1     3     3   512   501 -2.541474742E+00  1.128798238E+00 -7.926496875E+00  8.400156667E+00  1.460009660E-07  0.00000E+00  9.000E+00
      21     1     4     4   507   513 -1.888436570E+00  3.547138823E-01 -4.096349010E+00  4.524609357E+00  5.960464478E-08  0.00000E+00  9.000E+00
#rwgt            1          17  -13.746039114880848                1     4577570           0       11110           0
<weights>
-.13369E+02
</weights>
</event>
<event>
     13  10001  1.35503E+01  8.52845E+01 -1.00000E+00  1.27019E-01
      21    -1     0     0   512   501  0.000000000E+00  0.000000000E+00  3.210335096E+02  3.210335096E+02  0.000000000E+00  0.00000E+00  9.000E+00
      21    -1     0     0   507   502  0.000000000E+00  0.000000000E+00 -6.987268501E+02  6.987268501E+02  0.000000000E+00  0.00000E+00  9.000E+00
      -6     2     1     2     0   501  1.698841556E+00  1.471486718E+02  1.857323463E+02  2.929809303E+02  1.722953956E+02  0.00000E+00  9.000E+00
       6     2     1     2   507     0  6.528679516E+01 -9.436264362E+01 -6.000341281E+02  6.339698486E+02  1.694406679E+02  0.00000E+00  9.000E+00
     -24     2     3     3     0     0  5.442212649E+00  1.609850536E+02  2.019243873E+02  2.708404024E+02  8.145710653E+01  0.00000E+00  9.000E+00
      24     2     4     4     0     0  9.601381139E+01 -6.135343060E+01 -3.058738857E+02  3.363348904E+02  8.111368011E+01  0.00000E+00  9.000E+00
     -11     1     6     6     0     0  2.269923845E+01 -4.552013305E+01 -5.696058802E+01  7.636652752E+01  0.000000000E+00  0.00000E+00  9.000E+00
      12     1     6     6     0     0  7.331457295E+01 -1.583329756E+01 -2.489132977E+02  2.599683629E+02  2.697398305E-06  0.00000E+00  9.000E+00
      13     1     5     5     0     0  2.293944575E+01  2.626276785E+01  1.109613995E+01  3.659338012E+01  0.000000000E+00  0.00000E+00  9.000E+00
     -14     1     5     5     0     0 -1.749723310E+01  1.347222857E+02  1.908282474E+02  2.342470222E+02  8.529922400E-06  0.00000E+00  9.000E+00
       5     1     4     4   507     0 -3.072701624E+01 -3.300921301E+01 -2.941602424E+02  2.976349582E+02  4.750000000E+00  0.00000E+00  9.000E+00
      -5     1     3     3     0   501 -3.743371093E+00 -1.383638174E+01 -1.619204098E+01  2.214052794E+01  4.750000000E+00  0.00000E+00  9.000E+00
      21     1     1     2   512   502 -6.698563671E+01 -5.278602823E+01  3.660844122E+01  9.280958070E+01  2.023048729E-06  0.00000E+00  9.000E+00
#rwgt            2         113   2.8396525926792200                1     4587589           0           1           0
<weights>
0.13550E+02
</weights>
</event>
<event>
     15  10001 -1.35503E+01  3.31091E+02 -1.00000E+00  3.06311E-01
      21    -1     0     0   511   501  0.000000000E+00  0.000000000E+00  8.590194239E+02  8.590194239E+02  0.000000000E+00  0.00000E+00  9.000E+00
      21    -1     0     0   501   502  0.000000000E+00  0.000000000E+00 -7.334211523E+02  7.334211523E+02  0.000000000E+00  0.00000E+00  9.000E+00
      -6     2     1     2     0   502  3.842510042E+02 -4.461152959E+02  3.136407004E+02  6.890697238E+02  1.725656509E+02  0.00000E+00  9.000E+00
       6     2     1     2   507     0 -2.610485011E+02  1.388003935E+02  1.980690670E+02  3.947419176E+02  1.708155646E+02  0.00000E+00  9.000E+00
     -24     2     3     3     0     0  3.406431839E+02 -3.043002483E+02  2.222748885E+02  5.140392563E+02  7.870076929E+01  0.00000E+00  9.000E+00
      24     2     4     4     0     0 -1.698577320E+02  1.431397270E+02  9.459065247E+01  2.543461443E+02  8.002461511E+01  0.00000E+00  9.000E+00
     -11     1     6     6     0     0 -1.067783039E+02  5.664062543E+01  8.308580417E+01  1.466731656E+02  0.000000000E+00  0.00000E+00  9.000E+00
      12     1     6     6     0     0 -6.307942806E+01  8.649910158E+01  1.150484830E+01  1.076729788E+02  5.756710275E-06  0.00000E+00  9.000E+00
      13     1     5     5     0     0  1.583621016E+02 -1.403658361E+02  5.969476151E+01  2.198740269E+02  0.000000000E+00  0.00000E+00  9.000E+00
     -14     1     5     5     0     0  1.822810823E+02 -1.639344122E+02  1.625801270E+02  2.941652294E+02  7.864199878E-06  0.00000E+00  9.000E+00
       5     1     4     4   513     0 -6.383712785E+01 -1.366845993E+01  6.473873465E+01  9.206341268E+01  4.750000000E+00  0.00000E+00  9.000E+00
      -5     1     3     3     0   512  4.310635696E+01 -1.421881098E+02  9.111957063E+01  1.743586970E+02  4.750000000E+00  0.00000E+00  9.000E+00
      21     1     1     2   511   507 -1.232025031E+02  3.073149025E+02 -3.861114958E+02  5.086289347E+02  1.206313194E-05  0.00000E+00  9.000E+00
      21     1     4     4   507   513 -2.735364123E+01  9.329126375E+00  3.873967992E+01  4.833236066E+01  1.507891493E-06  0.00000E+00  9.000E+00
      21     1     3     3   512   502  5.014633547E-01  3.730621760E-01  2.462412373E-01  6.717705191E-01  6.006850115E-08  0.00000E+00  9.000E+00
#rwgt            1          17  -62.657739969574074                1     4591532           0       11011           0
<weights>
-.13636E+02
</weights>
</event>
<event>
     15  10001  1.35503E+01  7.21157E+01 -1.00000E+00  3.02553E-01
      21    -1     0     0   502   501  0.000000000E+00  0.000000000E+00  1.241206197E+02  1.241206197E+02  0.000000000E+00  0.00000E+00  9.000E+00
      21    -1     0     0   512   502  0.000000000E+00  0.000000000E+00 -9.059885874E+02  9.059885874E+02  0.000000000E+00  0.00000E+00  9.000E+00
      -6     2     1     2     0   501 -1.296920258E+02 -9.903176116E+01 -2.228346845E+02  3.247286869E+02  1.707808894E+02  0.00000E+00  9.000E+00
       6     2     1     2   507     0  1.762760942E+02  4.398087762E+01 -5.786291097E+02  6.306498596E+02  1.729162223E+02  0.00000E+00  9.000E+00
     -24     2     3     3     0     0 -8.155309188E+01  6.978497246E+00 -8.497475066E+01  1.432155231E+02  8.118110365E+01  0.00000E+00  9.000E+00
      24     2     4     4     0     0  4.085089268E+01  5.173230945E+01 -1.715571244E+02  2.014419926E+02  8.247425144E+01  0.00000E+00  9.000E+00
     -11     1     6     6     0     0  2.792297287E+01  5.970580830E+01 -6.087697969E+01  8.972448169E+01  0.000000000E+00  0.00000E+00  9.000E+00
      12     1     6     6     0     0  1.292791981E+01 -7.973498854E+00 -1.106801447E+02  1.117175109E+02  2.336015456E-06  0.00000E+00  9.000E+00
      13     1     5     5     0     0 -8.762015058E+00  3.732545604E+00 -6.765482446E+01  6.832188579E+01  0.000000000E+00  0.00000E+00  9.000E+00
     -14     1     5     5     0     0 -7.279107682E+01  3.245951642E+00 -1.731992620E+01  7.489363732E+01  2.396077066E-06  0.00000E+00  9.000E+00
       5     1     4     4   513     0  1.325524971E+02 -8.927570710E+00 -3.987278466E+02  4.203050370E+02  4.750000000E+00  0.00000E+00  9.000E+00
      -5     1     3     3     0   511 -4.642201969E+01 -1.065122203E+02 -1.357407775E+02  1.787399736E+02  4.750000000E+00  0.00000E+00  9.000E+00
      21     1     1     2   512   507 -4.658406831E+01  5.505088354E+01  1.959582648E+01  7.473066047E+01  1.066240300E-06  0.00000E+00  9.000E+00
      21     1     3     3   511   501 -1.716914269E+00  5.019618771E-01 -2.119156326E+00  2.773190197E+00  2.980232239E-08  0.00000E+00  9.000E+00
      21     1     4     4   507   513  2.872704399E+00  1.176138887E+00 -8.344138665E+00  8.902830073E+00  1.192092896E-07  0.00000E+00  9.000E+00
#rwgt            1          17   6.8162229233666647                1     4595436           0       11110           0
<weights>
0.19664E+02
</weights>
</event>
<event>
     15  10001  1.35503E+01  3.98372E+01 -1.00000E+00  3.48545E-01
      -2    -1     0     0     0   501  0.000000000E+00  0.000000000E+00  5.241498961E+02  5.241498961E+02  0.000000000E+00  0.00000E+00  9.000E+00
      21    -1     0     0   507   502  0.000000000E+00  0.000000000E+00 -1.881024977E+02  1.881024977E+02  0.000000000E+00  0.00000E+00  9.000E+00
      -6     2     1     2     0   501 -4.342708648E+01 -7.010096543E+01 -8.969998375E+01  2.070988966E+02  1.674628576E+02  0.00000E+00  9.000E+00
       6     2     1     2   507     0  8.184389221E+01  5.955814517E+01  2.219810594E+02  2.975295190E+02  1.703015813E+02  0.00000E+00  9.000E+00
     -24     2     3     3     0     0 -6.529705290E+01 -7.801610936E+01 -1.581164643E+01  1.287513165E+02  7.730895738E+01  0.00000E+00  9.000E+00
      24     2     4     4     0     0  9.351561966E+01  4.765654895E+01  8.044964968E+01  1.545279375E+02  7.994009972E+01  0.00000E+00  9.000E+00
     -11     1     6     6     0     0  6.570930533E+01 -2.333251413E+00  1.469323108E+01  6.737245660E+01  0.000000000E+00  0.00000E+00  9.000E+00
      12     1     6     6     0     0  2.780631433E+01  4.998980036E+01  6.575641859E+01  8.715548085E+01  1.907348633E-06  0.00000E+00  9.000E+00
      13     1     5     5     0     0 -3.200069115E+01 -4.159559992E+01  3.081647241E+01  6.085961829E+01  0.000000000E+00  0.00000E+00  9.000E+00
     -14     1     5     5     0     0 -3.329636175E+01 -3.642050944E+01 -4.662811884E+01  6.789169817E+01  2.523185073E-06  0.00000E+00  9.000E+00
       5     1     4     4   512     0 -1.513315534E+00  6.032611891E+00  7.837518318E+01  7.876493108E+01  4.750000000E+00  0.00000E+00  9.000E+00
      -5     1     3     3     0   511  2.184240704E+01  6.270863029E+00 -7.270479465E+01  7.632145264E+01  4.750000000E+00  0.00000E+00  9.000E+00
      -2     1     1     2     0   502 -3.841680573E+01  1.054282026E+01  2.037663229E+02  2.076239783E+02  0.000000000E+00  0.00000E+00  9.000E+00
      21     1     4     4   507   512 -1.015841191E+01  5.868984332E+00  6.315622652E+01  6.423665043E+01  6.743495762E-07  0.00000E+00  9.000E+00
      21     1     3     3   511   501  2.755936985E-02  1.644280898E+00 -1.183542674E+00  2.026127452E+00  0.000000000E+00  0.00000E+00  9.000E+00
#rwgt            1          17   43.787870269208952                1     4603761           0       11011           0
<weights>
0.12804E+02
</weights>
</event>
<event>
     15  10001  1.35503E+01  3.57842E+01 -1.00000E+00  2.70711E-01
      21    -1     0     0   502   511  0.000000000E+00  0.000000000E+00  7.054855863E+02  7.054855863E+02  0.000000000E+00  0.00000E+00  9.000E+00
      21    -1     0     0   507   502  0.000000000E+00  0.000000000E+00 -1.513759254E+02  1.513759254E+02  0.000000000E+00  0.00000E+00  9.000E+00
      -6     2     1     2     0   501 -1.947470663E+01  1.263091237E+02  3.918981759E+02  4.454832863E+02  1.689316998E+02  0.00000E+00  9.000E+00
       6     2     1     2   507     0  3.758587352E+01 -1.571716463E+02 -8.653181766E+00  2.368066240E+02  1.728782095E+02  0.00000E+00  9.000E+00
     -24     2     3     3     0     0 -5.431736602E+01  1.331262929E+02  3.383222056E+02  3.791569698E+02  9.287145332E+01  0.00000E+00  9.000E+00
      24     2     4     4     0     0 -2.808043885E+01 -1.435066127E+02  4.045314541E+00  1.661307695E+02  7.874267633E+01  0.00000E+00  9.000E+00
     -11     1     6     6     0     0  1.351303021E+01 -1.085629857E+02 -1.047157004E+01  1.099007627E+02  0.000000000E+00  0.00000E+00  9.000E+00
      12     1     6     6     0     0 -4.159346906E+01 -3.494362702E+01  1.451688458E+01  5.623000689E+01  1.831327855E-06  0.00000E+00  9.000E+00
      13     1     5     5     0     0 -4.966073588E+01  7.122829185E+01  9.793645386E+01  1.308862378E+02  0.000000000E+00  0.00000E+00  9.000E+00
     -14     1     5     5     0     0 -4.656630144E+00  6.189800104E+01  2.403857518E+02  2.482707320E+02  6.031565972E-06  0.00000E+00  9.000E+00
       5     1     4     4   513     0  6.037809895E+01 -8.107845648E+00 -7.865399987E+00  6.160908221E+01  4.750000000E+00  0.00000E+00  9.000E+00
      -5     1     3     3     0   512  3.399264752E+01 -7.629373481E+00  4.237043045E+01  5.505927081E+01  4.750000000E+00  0.00000E+00  9.000E+00
      21     1     1     2   501   511 -1.811116689E+01  3.086252265E+01  1.708646668E+02  1.745716014E+02  1.907348633E-06  0.00000E+00  9.000E+00
      21     1     4     4   507   513  5.288213419E+00 -5.557187939E+00 -4.833096321E+00  9.066772248E+00  1.576990671E-07  0.00000E+00  9.000E+00
      21     1     3     3   512   501  8.500118739E-01  8.122042655E-01  1.120553980E+01  1.126704567E+01  1.192092896E-07  0.00000E+00  9.000E+00
#rwgt            1          17   241.91804718504486                1     4610754           0       11011           0
<weights>
0.15276E+02
</weights>
</event>
<event>
     15  10001  1.35503E+01  2.50893E+01 -1.00000E+00  2.64841E-01
      21    -1     0     0   502   512  0.000000000E+00  0.000000000E+00  7.103587963E+02  7.103587963E+02  0.000000000E+00  0.00000E+00  9.000E+00
      21    -1     0     0   507   502  0.000000000E+00  0.000000000E+00 -7.351884304E+01  7.351884304E+01  0.000000000E+00  0.00000E+00  9.000E+00
      -6     2     1     2     0   501 -8.745007665E+00 -8.856803519E+01  4.636885384E+02  5.040876031E+02  1.765686239E+02  0.00000E+00  9.000E+00
       6     2     1     2   507     0  2.568282560E+01  7.005896756E+01  1.722547043E+02  2.546846712E+02  1.721183667E+02  0.00000E+00  9.000E+00
     -24     2     3     3     0     0  5.397553596E+01 -2.138080684E+01  1.856569541E+02  2.106273908E+02  8.077682697E+01  0.00000E+00  9.000E+00
      24     2     4     4     0     0  7.868081635E+01  4.559172120E+01  1.468708892E+02  1.904084728E+02  8.009402294E+01  0.00000E+00  9.000E+00
     -11     1     6     6     0     0  2.479603826E+01 -2.282319959E+01  4.804742696E+01  5.868813501E+01  0.000000000E+00  0.00000E+00  9.000E+00
      12     1     6     6     0     0  5.388477808E+01  6.841492078E+01  9.882346226E+01  1.317203378E+02  2.336015456E-06  0.00000E+00  9.000E+00
      13     1     5     5     0     0  9.581928944E+00 -2.514650735E+01  8.902849178E+00  2.834468059E+01  0.000000000E+00  0.00000E+00  9.000E+00
     -14     1     5     5     0     0  4.439360702E+01  3.765700511E+00  1.767541049E+02  1.822827102E+02  2.697398305E-06  0.00000E+00  9.000E+00
       5     1     4     4   513     0 -5.258180833E+01  2.457965575E+01  2.578238270E+01  6.368908699E+01  4.750000000E+00  0.00000E+00  9.000E+00
      -5     1     3     3     0   511 -6.350719739E+01 -6.290125475E+01  2.634337368E+02  2.782258582E+02  4.750000000E+00  0.00000E+00  9.000E+00
      21     1     1     2   501   512 -1.693781793E+01  1.850906763E+01  8.967105534E-01  2.510536498E+01  4.360977002E-07  0.00000E+00  9.000E+00
      21     1     3     3   511   501  7.866537593E-01 -4.285973602E+00  1.459784750E+01  1.523435412E+01  0.000000000E+00  0.00000E+00  9.000E+00
      21     1     4     4   507   513 -4.161824186E-01 -1.124093888E-01 -3.985676396E-01  5.871114371E-01  5.025691376E-08  0.00000E+00  9.000E+00
#rwgt            1          17   14.452597238251377                1     4621095           0       11110           0
<weights>
0.15221E+02
</weights>
</event>
<event>
     15  10001  1.35503E+01  1.58291E+01 -1.00000E+00  1.76694E-01
      -1    -1     0     0     0   511  0.000000000E+00  0.000000000E+00  2.037814510E+01  2.037814510E+01  0.000000000E+00  0.00000E+00  9.000E+00
       1    -1     0     0   507     0  0.000000000E+00  0.000000000E+00 -2.563926507E+03  2.563926507E+03  0.000000000E+00  0.00000E+00  9.000E+00
      -6     2     1     2     0   501 -8.606983492E+01 -3.041786680E+01 -1.510644084E+03  1.523293686E+03  1.733344861E+02  0.00000E+00  9.000E+00
       6     2     1     2   507     0  8.306954398E+01  4.596005309E+01 -1.024367830E+03  1.043026744E+03  1.719373742E+02  0.00000E+00  9.000E+00
     -24     2     3     3     0     0 -1.068020607E+02 -3.580154076E+01 -1.423950935E+03  1.430416232E+03  7.593351637E+01  0.00000E+00  9.000E+00
      24     2     4     4     0     0  6.055128140E+01  6.995795566E+01 -4.347284936E+02  4.517742667E+02  8.093547857E+01  0.00000E+00  9.000E+00
     -11     1     6     6     0     0  1.243810803E+01 -1.844709455E+01 -7.497813604E+01  7.820947968E+01  0.000000000E+00  0.00000E+00  9.000E+00
      12     1     6     6     0     0  4.811317337E+01  8.840505021E+01 -3.597503575E+02  3.735647870E+02  1.477425898E-05  0.00000E+00  9.000E+00
      13     1     5     5     0     0 -4.177210081E+01 -8.965810014E+00 -2.033460167E+02  2.077856989E+02  0.000000000E+00  0.00000E+00  9.000E+00
     -14     1     5     5     0     0 -6.502995984E+01 -2.683573074E+01 -1.220604919E+03  1.222630533E+03  1.525878906E-05  0.00000E+00  9.000E+00
       5     1     4     4   514     0  1.442987220E+01 -1.901060510E+01 -5.481075649E+02  5.486475093E+02  4.750000000E+00  0.00000E+00  9.000E+00
      -5     1     3     3     0   512  9.781853725E+00  1.113969261E+01 -2.163513340E+01  2.665368476E+01  4.750000000E+00  0.00000E+00  9.000E+00
      21     1     1     2   501   511  3.000290942E+00 -1.554218628E+01 -8.536447826E+00  1.798422202E+01  1.549720764E-06  0.00000E+00  9.000E+00
      21     1     3     3   512   501  1.095037200E+01 -5.756018663E+00 -6.505801474E+01  6.622376975E+01  9.536743164E-07  0.00000E+00  9.000E+00
      21     1     4     4   507   514  8.088390377E+00 -4.987297474E+00 -4.153177198E+01  4.260496777E+01  4.768371582E-07  0.00000E+00  9.000E+00
#rwgt            1           2   6.4799663588371121                1     4631833           0       11110           0
<weights>
0.49965E+01
</weights>
</event>
<event>
     15  10001  1.35503E+01  6.32825E+01 -1.00000E+00  1.86023E-01
      21    -1     0     0   512   501  0.000000000E+00  0.000000000E+00  3.274873333E+02  3.274873333E+02  0.000000000E+00  0.00000E+00  9.000E+00
      21    -1     0     0   501   502  0.000000000E+00  0.000000000E+00 -5.229543324E+02  5.229543324E+02  0.000000000E+00  0.00000E+00  9.000E+00
      -6     2     1     2     0   502  3.077361646E+01 -1.139827938E+02  2.544838080E+01  2.103614010E+02  1.722359028E+02  0.00000E+00  9.000E+00
       6     2     1     2   507     0  3.255070449E+00  6.062814481E+01  1.653118299E+02  2.487030455E+02  1.756098980E+02  0.00000E+00  9.000E+00
     -24     2     3     3     0     0 -3.815954609E+00 -4.823126959E+00 -1.939876039E+01  8.286924489E+01  8.033166113E+01  0.00000E+00  9.000E+00
      24     2     4     4     0     0  2.453970238E+01  1.405249216E+01  1.155459476E+01  8.623217292E+01  8.063999912E+01  0.00000E+00  9.000E+00
     -11     1     6     6     0     0  2.933803242E+01 -1.764236832E+01  3.309145345E+01  4.761320822E+01  0.000000000E+00  0.00000E+00  9.000E+00
      12     1     6     6     0     0 -4.798330035E+00  3.169486048E+01 -2.153685869E+01  3.861896470E+01  9.536743164E-07  0.00000E+00  9.000E+00
      13     1     5     5     0     0 -3.811515663E+01 -1.619198913E+01 -2.152597439E+01  4.667240352E+01  0.000000000E+00  0.00000E+00  9.000E+00
     -14     1     5     5     0     0  3.429920202E+01  1.136886217E+01  2.127213995E+00  3.619684137E+01  4.897021271E-07  0.00000E+00  9.000E+00
       5     1     4     4   513     0 -2.242121846E+01  4.491151272E+01  1.491498182E+02  1.574420077E+02  4.750000000E+00  0.00000E+00  9.000E+00
      -5     1     3     3     0   511  3.984396972E+01 -1.035294154E+02  3.852101292E+01  1.175257959E+02  4.750000000E+00  0.00000E+00  9.000E+00
      21     1     1     2   512   507 -3.402868691E+01  5.335464898E+01 -3.862272098E+02  3.913772192E+02  5.394796609E-06  0.00000E+00  9.000E+00
      21     1     3     3   511   502 -5.254398648E+00 -5.630251434E+00  6.326128269E+00  9.966360180E+00  1.192092896E-07  0.00000E+00  9.000E+00
      21     1     4     4   507   513  1.136586525E+00  1.664139933E+00  4.607416929E+00  5.028864823E+00  1.192092896E-07  0.00000E+00  9.000E+00
#rwgt            1          17   22.857425309628614                1     4641218           0       11110           0
<weights>
0.13583E+02
</weights>
</event>
<event>
     15  10001 -1.35503E+01  5.49024E+01 -1.00000E+00  1.91822E-01
      21    -1     0     0   507   511  0.000000000E+00  0.000000000E+00  3.504174585E+02  3.504174585E+02  0.000000000E+00  0.00000E+00  9.000E+00
      21    -1     0     0   501   502  0.000000000E+00  0.000000000E+00 -1.299765184E+03  1.299765184E+03  0.000000000E+00  0.00000E+00  9.000E+00
      -6     2     1     2     0   502 -3.581835332E+01 -6.374577731E+01 -6.987759222E+02  7.170685776E+02  1.433634436E+02  0.00000E+00  9.000E+00
       6     2     1     2   507     0  5.031205600E+01  1.079103253E+01 -5.766332984E+02  6.024626305E+02  1.667558426E+02  0.00000E+00  9.000E+00
     -24     2     3     3     0     0 -9.208453760E+00 -7.618695877E+01 -3.577716614E+02  3.745064327E+02  7.978256774E+01  0.00000E+00  9.000E+00
      24     2     4     4     0     0  1.391183172E+01  1.303389786E+01 -1.225695236E+02  1.468470903E+02  7.859617206E+01  0.00000E+00  9.000E+00
     -11     1     6     6     0     0 -2.556787224E+01 -1.460608792E+01 -6.764762457E+01  7.377841829E+01  0.000000000E+00  0.00000E+00  9.000E+00
      12     1     6     6     0     0  3.947970395E+01  2.763998578E+01 -5.492189904E+01  7.306867203E+01  3.814697266E-06  0.00000E+00  9.000E+00
      13     1     5     5     0     0  1.089479986E+01 -5.988330947E+01 -3.335478657E+02  3.390558747E+02  0.000000000E+00  0.00000E+00  9.000E+00
     -14     1     5     5     0     0 -2.010325362E+01 -1.630364930E+01 -2.422379566E+01  3.545055800E+01  9.536743164E-07  0.00000E+00  9.000E+00
       5     1     4     4   514     0  2.856089374E+01  1.169838961E+00 -3.596338810E+02  3.607993681E+02  4.750000000E+00  0.00000E+00  9.000E+00
      -5     1     3     3     0   512 -2.124782926E+01  3.295292806E+00 -2.259812121E+02  2.270515359E+02  4.750000000E+00  0.00000E+00  9.000E+00
      21     1     1     2   501   511 -1.449370267E+01  5.295474478E+01  3.260614952E+02  3.306514343E+02  3.814697266E-06  0.00000E+00  9.000E+00
      21     1     3     3   512   502 -5.362070308E+00  9.145888658E+00 -1.150230486E+02  1.155106090E+02  1.348699152E-06  0.00000E+00  9.000E+00
      21     1     4     4   507   514  7.839330537E+00 -3.412704292E+00 -9.442989380E+01  9.481617212E+01  0.000000000E+00  0.00000E+00  9.000E+00
#rwgt            1          17  -254.73942571004568                1     4649083           0       11110           0
<weights>
-.13161E+02
</weights>
</event>
<event>
     15  10001  1.35503E+01  4.50511E+01 -1.00000E+00  1.49377E-01
      21    -1     0     0   502   501  0.000000000E+00  0.000000000E+00  9.175491346E+01  9.175491346E+01  0.000000000E+00  0.00000E+00  9.000E+00
       3    -1     0     0   507     0  0.000000000E+00  0.000000000E+00 -2.014359799E+03  2.014359799E+03  0.000000000E+00  0.00000E+00  9.000E+00
      -6     2     1     2     0   501  6.048344203E+01  2.621046255E+01 -2.868359372E+02  3.411177662E+02  1.724564886E+02  0.00000E+00  9.000E+00
       6     2     1     2   507     0 -1.013435593E+02 -7.235476714E+00 -1.184514719E+02  2.470108055E+02  1.914698871E+02  0.00000E+00  9.000E+00
     -24     2     3     3     0     0  4.942931831E+01 -2.762425657E+01 -1.048408914E+02  1.446231222E+02  8.196266160E+01  0.00000E+00  9.000E+00
      24     2     4     4     0     0 -8.699757109E+01  6.762398295E+01 -5.642614662E+01  1.476738439E+02  8.051132654E+01  0.00000E+00  9.000E+00
     -11     1     6     6     0     0 -8.981474503E+00 -1.385574447E+01  7.363963060E+00  1.807972597E+01  0.000000000E+00  0.00000E+00  9.000E+00
      12     1     6     6     0     0 -7.801609658E+01  8.147972742E+01 -6.379010968E+01  1.295941179E+02  2.523185073E-06  0.00000E+00  9.000E+00
      13     1     5     5     0     0  4.805899942E+01 -3.149770490E+01 -1.177789774E+02  1.310483130E+02  0.000000000E+00  0.00000E+00  9.000E+00
     -14     1     5     5     0     0  1.370318886E+00  3.873448330E+00  1.293808594E+01  1.357480915E+01  5.057621821E-07  0.00000E+00  9.000E+00
       5     1     4     4   512     0 -1.839400395E+00 -1.332214457E+01 -1.629187259E+01  2.165295690E+01  4.750000000E+00  0.00000E+00  9.000E+00
      -5     1     3     3     0   511 -1.661919317E+01  3.552985628E+01 -1.175027080E+02  1.239678069E+02  4.750000000E+00  0.00000E+00  9.000E+00
       3     1     1     2   502     0  4.086011730E+01 -1.897498583E+01 -1.517317476E+03  1.517986140E+03  0.000000000E+00  0.00000E+00  9.000E+00
      21     1     3     3   511   501  2.767331689E+01  1.830486284E+01 -6.449233777E+01  7.252683712E+01  0.000000000E+00  0.00000E+00  9.000E+00
      21     1     4     4   507   512 -1.250658785E+01 -6.153731509E+01 -4.573345270E+01  7.768400469E+01  1.168007728E-06  0.00000E+00  9.000E+00
#rwgt            1          17   76.073344318543718                1     4659012           0       11110           0
<weights>
0.18749E+02
</weights>
</event>
<event>
     14  10001  1.35503E+01  8.45032E+01 -1.00000E+00  7.52563E-01
       2    -1     0     0   507     0  0.000000000E+00  0.000000000E+00  9.505201204E+02  9.505201204E+02  0.000000000E+00  0.00000E+00  9.000E+00
      21    -1     0     0   511   502  0.000000000E+00  0.000000000E+00 -8.119058222E+01  8.119058222E+01  0.000000000E+00  0.00000E+00  9.000E+00
      -6     2     1     2     0   502 -8.645675295E+01 -2.469065441E+01  1.964630679E+02  2.825161099E+02  1.820253190E+02  0.00000E+00  9.000E+00
       6     2     1     2   507     0  1.700989344E+02  1.265842615E+01  4.626351082E+02  5.226156558E+02  1.732108458E+02  0.00000E+00  9.000E+00
     -24     2     3     3     0     0 -7.044627089E+01  3.678105563E+01  1.861731390E+02  2.179905196E+02  8.089441151E+01  0.00000E+00  9.000E+00
      24     2     4     4     0     0  1.946043352E+02  8.838877226E+00  3.640817164E+02  4.207352005E+02  8.070712328E+01  0.00000E+00  9.000E+00
     -11     1     6     6     0     0  3.273004382E+01  3.011133232E+01  5.120838006E+01  6.782511549E+01  0.000000000E+00  0.00000E+00  9.000E+00
      12     1     6     6     0     0  1.618742914E+02 -2.127245510E+01  3.128733363E+02  3.529100851E+02  0.000000000E+00  0.00000E+00  9.000E+00
      13     1     5     5     0     0 -2.978216345E+00 -5.295141091E+00 -6.895228881E+00  9.189802669E+00  0.000000000E+00  0.00000E+00  9.000E+00
     -14     1     5     5     0     0 -6.746805454E+01  4.207619672E+01  1.930683679E+02  2.088007169E+02  4.672030912E-06  0.00000E+00  9.000E+00
       5     1     4     4   512     0 -2.371854895E+01  3.326829668E+00  9.732210111E+01  1.003383836E+02  4.750000000E+00  0.00000E+00  9.000E+00
      -5     1     3     3     0   502 -1.601048206E+01 -6.147171004E+01  1.028992890E+01  6.452559033E+01  4.750000000E+00  0.00000E+00  9.000E+00
       2     1     1     2   511     0 -8.364218146E+01  1.203222826E+01  2.102313621E+02  2.265789369E+02  0.000000000E+00  0.00000E+00  9.000E+00
      21     1     4     4   507   512 -7.868518563E-01  4.927192566E-01  1.231290683E+00  1.542071612E+00  6.143906155E-08  0.00000E+00  9.000E+00
#rwgt            1           8  0.56276522134170182                1     4660809           0         110           0
<weights>
0.13419E+02
</weights>
</event>
<event>
     14  10001  1.35503E+01  5.60879E+01 -1.00000E+00  7.34686E-01
       2    -1     0     0   507     0  0.000000000E+00  0.000000000E+00  6.778438564E+02  6.778438564E+02  0.000000000E+00  0.00000E+00  9.000E+00
      21    -1     0     0   512   502  0.000000000E+00  0.000000000E+00 -1.237543851E+02  1.237543851E+02  0.000000000E+00  0.00000E+00  9.000E+00
      -6     2     1     2     0   502 -6.488075207E-01 -3.743766641E+01 -2.025680249E+01  1.772394437E+02  1.720508138E+02  0.00000E+00  9.000E+00
       6     2     1     2   507     0 -5.493150438E+01  2.990928999E+01  3.667750873E+02  4.093433449E+02  1.706633339E+02  0.00000E+00  9.000E+00
     -24     2     3     3     0     0  3.178899190E+01  3.974605374E+01 -1.411246230E+01  9.315702633E+01  7.673839436E+01  0.00000E+00  9.000E+00
      24     2     4     4     0     0 -6.279571744E+01  4.041027112E+01  1.228793370E+02  1.650038303E+02  8.093602654E+01  0.00000E+00  9.000E+00
     -11     1     6     6     0     0 -2.228488647E+01 -2.401652883E+01  2.611789132E+01  4.189933256E+01  0.000000000E+00  0.00000E+00  9.000E+00
      12     1     6     6     0     0 -4.051083098E+01  6.442679996E+01  9.676144571E+01  1.231044977E+02  2.697398305E-06  0.00000E+00  9.000E+00
      13     1     5     5     0     0 -2.221711238E+01 -1.890585968E-01 -1.347828867E+01  2.598653673E+01  0.000000000E+00  0.00000E+00  9.000E+00
     -14     1     5     5     0     0  5.400610428E+01  3.993511233E+01 -6.341736217E-01  6.717048960E+01  8.726089969E-07  0.00000E+00  9.000E+00
       5     1     4     4   511     0  5.417267745E+00 -9.767268675E+00  1.954949518E+02  1.958713481E+02  4.750000000E+00  0.00000E+00  9.000E+00
      -5     1     3     3     0   502 -3.243779942E+01 -7.718372014E+01 -6.144340192E+00  8.408241733E+01  4.750000000E+00  0.00000E+00  9.000E+00
       2     1     1     2   512     0  5.558031190E+01  7.528376418E+00  2.075711866E+02  2.150154530E+02  0.000000000E+00  0.00000E+00  9.000E+00
      21     1     4     4   507   511  2.446945317E+00 -7.337124592E-01  4.840079845E+01  4.846816652E+01  6.743495762E-07  0.00000E+00  9.000E+00
#rwgt            1           8  0.81192801579759977                1     4666349           0         110           0
<weights>
0.13233E+02
</weights>
</event>
<event>
     13  10001  1.35503E+01  4.67023E+01 -1.00000E+00  7.51468E-01
      21    -1     0     0   507   511  0.000000000E+00  0.000000000E+00  1.761566387E+02  1.761566387E+02  0.000000000E+00  0.00000E+00  9.000E+00
      21    -1     0     0   501   502  0.000000000E+00  0.000000000E+00 -3.016833791E+02  3.016833791E+02  0.000000000E+00  0.00000E+00  9.000E+00
      -6     2     1     2     0   502  1.704952418E+01  3.796320490E+01 -9.071996985E+01  1.993377327E+02  1.725500726E+02  0.00000E+00  9.000E+00
       6     2     1     2   507     0 -6.748832723E+00  7.588944063E+00 -9.983861617E+01  1.984382890E+02  1.711924836E+02  0.00000E+00  9.000E+00
     -24     2     3     3     0     0 -4.720134306E+01  5.584217541E+01 -7.200357304E+01  1.299064895E+02  7.965466806E+01  0.00000E+00  9.000E+00
      24     2     4     4     0     0  1.660406437E+01  6.501323882E+01 -3.436064007E+01  1.081452368E+02  7.753916735E+01  0.00000E+00  9.000E+00
     -11     1     6     6     0     0 -1.625610693E+01 -4.281457266E+00 -2.605257786E+01  3.100530119E+01  0.000000000E+00  0.00000E+00  9.000E+00
      12     1     6     6     0     0  3.286017130E+01  6.929469608E+01 -8.308062209E+00  7.713993558E+01  4.616955931E-07  0.00000E+00  9.000E+00
      13     1     5     5     0     0 -4.953642153E+01  2.700880955E+01 -8.179481218E+01  9.936661487E+01  0.000000000E+00  0.00000E+00  9.000E+00
     -14     1     5     5     0     0  2.335078467E+00  2.883336586E+01  9.791239146E+00  3.053987463E+01  6.637292341E-07  0.00000E+00  9.000E+00
       5     1     4     4   507     0 -2.335289709E+01 -5.742429475E+01 -6.547797610E+01  9.029305225E+01  4.750000000E+00  0.00000E+00  9.000E+00
      -5     1     3     3     0   502  6.425086724E+01 -1.787897051E+01 -1.871639681E+01  6.943124324E+01  4.750000000E+00  0.00000E+00  9.000E+00
      21     1     1     2   501   511 -1.030069146E+01 -4.555214896E+01  6.503184559E+01  8.006399603E+01  1.348699152E-06  0.00000E+00  9.000E+00
#rwgt            1          17   26.380855456568884                1     4675079           0           1           0
<weights>
0.21976E+02
</weights>
</event>
<event>
     15  10001  1.35503E+01  3.35217E+01 -1.00000E+00  5.11928E-01
      21    -1     0     0   512   501  0.000000000E+00  0.000000000E+00  5.308548247E+02  5.308548247E+02  0.000000000E+00  0.00000E+00  9.000E+00
      21    -1     0     0   507   502  0.000000000E+00  0.000000000E+00 -8.459300981E+02  8.459300981E+02  0.000000000E+00  0.00000E+00  9.000E+00
      -6     2     1     2     0   501 -4.175775188E+01 -3.736554088E+01  5.000629336E+02  5.320420663E+02  1.728176186E+02  0.00000E+00  9.000E+00
       6     2     1     2   507     0  8.352676192E+00  3.457217546E+01 -5.487377490E+02  5.762416349E+02  1.722681110E+02  0.00000E+00  9.000E+00
     -24     2     3     3     0     0  1.033361151E+00 -8.483427591E+01  3.400563822E+02  3.596256252E+02  8.058737499E+01  0.00000E+00  9.000E+00
      24     2     4     4     0     0  6.654271564E+01  5.399146466E+01 -3.469550288E+02  3.648821964E+02  7.360851832E+01  0.00000E+00  9.000E+00
     -11     1     6     6     0     0  5.208434468E+00  4.597901452E+01 -9.826272216E+01  1.086128912E+02  0.000000000E+00  0.00000E+00  9.000E+00
      12     1     6     6     0     0  6.133428117E+01  8.012450140E+00 -2.486923067E+02  2.562693052E+02  3.814697266E-06  0.00000E+00  9.000E+00
      13     1     5     5     0     0  3.949277480E+01 -2.811224559E+01  1.427102981E+02  1.507189663E+02  0.000000000E+00  0.00000E+00  9.000E+00
     -14     1     5     5     0     0 -3.845941365E+01 -5.672203031E+01  1.973460841E+02  2.089066589E+02  6.031565972E-06  0.00000E+00  9.000E+00
       5     1     4     4   513     0 -5.162043136E+01 -2.076481802E+01 -1.862375379E+02  1.944294978E+02  4.750000000E+00  0.00000E+00  9.000E+00
      -5     1     3     3     0   511 -3.835886858E+01  4.423139617E+01  1.462238321E+02  1.575810610E+02  4.750000000E+00  0.00000E+00  9.000E+00
      21     1     1     2   512   502  3.340507569E+01  2.793365422E+00 -2.664004580E+02  2.685012216E+02  3.814697266E-06  0.00000E+00  9.000E+00
      21     1     4     4   507   513 -6.569608083E+00  1.345528812E+00 -1.554518233E+01  1.692994069E+01  3.371747881E-07  0.00000E+00  9.000E+00
      21     1     3     3   511   501 -4.432244452E+00  3.237338851E+00  1.378271923E+01  1.483538012E+01  4.129530925E-07  0.00000E+00  9.000E+00
#rwgt            1          17   1361.0903291954073                1     4686727           0       11011           0
<weights>
0.16620E+02
</weights>
</event>
<event>
     15  10001  1.35503E+01  1.32396E+00 -1.00000E+00  6.88265E-01
      -2    -1     0     0     0   512  0.000000000E+00  0.000000000E+00  1.321236575E+01  1.321236575E+01  0.000000000E+00  0.00000E+00  9.000E+00
       2    -1     0     0   501     0  0.000000000E+00  0.000000000E+00 -2.637966422E+03  2.637966422E+03  0.000000000E+00  0.00000E+00  9.000E+00
      -6     2     1     2     0   507  2.043108599E+01 -3.795572360E+01 -1.725394114E+03  1.734173978E+03  1.688682076E+02  0.00000E+00  9.000E+00
       6     2     1     2   507     0 -2.115847058E+01  3.684948022E+01 -8.848714792E+02  9.024559807E+02  1.721153603E+02  0.00000E+00  9.000E+00
     -24     2     3     3     0     0  6.850846286E+01 -2.582006508E+01 -1.463441214E+03  1.467394558E+03  7.890827486E+01  0.00000E+00  9.000E+00
      24     2     4     4     0     0 -2.975699874E+01 -1.378878883E+00 -2.281408871E+02  2.437412932E+02  8.046224790E+01  0.00000E+00  9.000E+00
     -11     1     6     6     0     0 -5.694424833E+01  5.692410058E+00 -1.646940195E+02  1.743535805E+02  0.000000000E+00  0.00000E+00  9.000E+00
      12     1     6     6     0     0  2.718724959E+01 -7.071288941E+00 -6.344686761E+01  6.938771272E+01  2.132480600E-06  0.00000E+00  9.000E+00
      13     1     5     5     0     0  4.497558555E+01 -5.310623896E+01 -8.212742208E+02  8.242174602E+02  0.000000000E+00  0.00000E+00  9.000E+00
     -14     1     5     5     0     0  2.353287732E+01  2.728617388E+01 -6.421669935E+02  6.431770978E+02  1.078959322E-05  0.00000E+00  9.000E+00
       5     1     4     4   511     0  8.258699338E+00  1.481775930E+01 -4.934145814E+02  4.937289578E+02  4.750000000E+00  0.00000E+00  9.000E+00
      -5     1     3     3     0   513 -4.753518572E+01 -1.158239076E+01 -2.491327506E+02  2.539358887E+02  4.750000000E+00  0.00000E+00  9.000E+00
      21     1     4     4   507   511  3.398288207E-01  2.341059980E+01 -1.633160107E+02  1.649857297E+02  0.000000000E+00  0.00000E+00  9.000E+00
      21     1     1     2   501   512  7.273845860E-01  1.106243379E+00 -1.448846325E+01  1.454882916E+01  1.685873940E-07  0.00000E+00  9.000E+00
      21     1     3     3   513   507 -5.421911511E-01 -5.532677647E-01 -1.282014883E+01  1.284353115E+01  2.384185791E-07  0.00000E+00  9.000E+00
#rwgt            1           6   15.578457545076661                1     4693771           0      100111           0
<weights>
0.90513E+01
</weights>
</event>
<event>
     15  10001  1.35503E+01  5.48399E+01 -1.00000E+00  2.72856E-01
      21    -1     0     0   512   501  0.000000000E+00  0.000000000E+00  1.270107528E+02  1.270107528E+02  0.000000000E+00  0.00000E+00  9.000E+00
      21    -1     0     0   507   502  0.000000000E+00  0.000000000E+00 -1.017716385E+03  1.017716385E+03  0.000000000E+00  0.00000E+00  9.000E+00
      -6     2     1     2     0   501  1.035454327E+02  1.397934119E+02 -5.390474029E+01  2.533073499E+02  1.760540765E+02  0.00000E+00  9.000E+00
       6     2     1     2   507     0 -1.137322567E+02 -8.590795009E+01 -4.740270805E+02  5.245243633E+02  1.735192571E+02  0.00000E+00  9.000E+00
     -24     2     3     3     0     0  1.204374947E+02  1.326128977E+02 -6.090986996E+00  1.995055282E+02  8.760128358E+01  0.00000E+00  9.000E+00
      24     2     4     4     0     0 -7.412513402E+01  1.876377018E+01 -2.646090370E+02  2.867840360E+02  7.987819650E+01  0.00000E+00  9.000E+00
     -11     1     6     6     0     0 -4.220714542E+01  2.490645742E+01 -5.105272967E+01  7.076832591E+01  0.000000000E+00  0.00000E+00  9.000E+00
      12     1     6     6     0     0 -3.191798860E+01 -6.142687245E+00 -2.135563073E+02  2.160157101E+02  4.672030912E-06  0.00000E+00  9.000E+00
      13     1     5     5     0     0  6.257702204E+01  1.265894258E+02 -5.822049299E+00  1.413317468E+02  0.000000000E+00  0.00000E+00  9.000E+00
     -14     1     5     5     0     0  5.786047265E+01  6.023471947E+00 -2.689376965E-01  5.817378135E+01  2.218716101E-06  0.00000E+00  9.000E+00
       5     1     4     4   511     0 -2.419242262E+01 -6.850656153E+01 -1.260129345E+02  1.455343411E+02  4.750000000E+00  0.00000E+00  9.000E+00
      -5     1     3     3     0   514 -1.746123715E+01  2.441948085E+00 -4.417551988E+01  4.780059592E+01  4.750000000E+00  0.00000E+00  9.000E+00
      21     1     1     2   512   502  1.018682399E+01 -5.388546180E+01 -3.627738110E+02  3.668954242E+02  7.629394531E-06  0.00000E+00  9.000E+00
      21     1     4     4   507   511 -1.541470003E+01 -3.616515874E+01 -8.340510906E+01  9.220598625E+01  1.651812370E-06  0.00000E+00  9.000E+00
      21     1     3     3   514   501  5.691751500E-01  4.738566102E+00 -3.638233417E+00  6.001225829E+00  9.424321831E-08  0.00000E+00  9.000E+00
#rwgt            1          17   16.028317708407592                1     4695166           0       11011           0
<weights>
0.15004E+02
</weights>
</event>
<event>
     14  10001  1.35503E+01  1.18659E+01 -1.00000E+00  7.51365E-01
      21    -1     0     0   512   501  0.000000000E+00  0.000000000E+00  2.379101532E+02  2.379101532E+02  0.000000000E+00  0.00000E+00  9.000E+00
      21    -1     0     0   501   502  0.000000000E+00  0.000000000E+00 -4.755036921E+02  4.755036921E+02  0.000000000E+00  0.00000E+00  9.000E+00
      -6     2     1     2     0   502 -1.615640130E+02  1.653511088E+02 -2.221208876E+02  3.641462503E+02  1.726872416E+02  0.00000E+00  9.000E+00
       6     2     1     2   507     0  1.615522126E+02 -1.534852318E+02  4.668121236E+01  2.859912018E+02  1.730751228E+02  0.00000E+00  9.000E+00
     -24     2     3     3     0     0 -5.879102017E+01  1.565503607E+02 -1.417828790E+02  2.333162103E+02  7.981021079E+01  0.00000E+00  9.000E+00
      24     2     4     4     0     0  1.594782831E+02 -9.234537395E+01 -1.837257825E+01  1.953488755E+02  6.215014614E+01  0.00000E+00  9.000E+00
     -11     1     6     6     0     0  1.128325321E+02 -7.270611599E+01  1.448331773E+01  1.350078742E+02  0.000000000E+00  0.00000E+00  9.000E+00
      12     1     6     6     0     0  4.664575092E+01 -1.963925796E+01 -3.285589598E+01  6.034100126E+01  1.581489940E-06  0.00000E+00  9.000E+00
      13     1     5     5     0     0 -7.472976361E+01  1.263611251E+02 -9.303098151E+01  1.737999857E+02  0.000000000E+00  0.00000E+00  9.000E+00
     -14     1     5     5     0     0  1.593874344E+01  3.018923557E+01 -4.875189746E+01  5.951622462E+01  1.507891493E-06  0.00000E+00  9.000E+00
       5     1     4     4   511     0 -5.603098399E-01 -5.110974292E+00  8.097322845E+00  1.070351076E+01  4.750000000E+00  0.00000E+00  9.000E+00
      -5     1     3     3     0   502 -1.027729929E+02  8.800748115E+00 -8.033800861E+01  1.308300400E+02  4.750000000E+00  0.00000E+00  9.000E+00
      21     1     4     4   507   511  2.634239391E+00 -5.602888353E+01  5.695646777E+01  7.993881553E+01  6.743495762E-07  0.00000E+00  9.000E+00
      21     1     1     2   512   507  1.180042793E-02 -1.186587701E+01 -6.215386363E+01  6.327639324E+01  9.536743164E-07  0.00000E+00  9.000E+00
#rwgt            1          17   252.52611624433604                1     4701470           0        1001           0
<weights>
0.13414E+02
</weights>
</event>
<event>
     13  10001  1.35503E+01  4.49892E+01 -1.00000E+00  1.41744E-01
      21    -1     0     0   502   512  0.000000000E+00  0.000000000E+00  3.040392067E+02  3.040392067E+02  0.000000000E+00  0.00000E+00  9.000E+00
      21    -1     0     0   507   502  0.000000000E+00  0.000000000E+00 -2.967344378E+02  2.967344378E+02  0.000000000E+00  0.00000E+00  9.000E+00
      -6     2     1     2     0   501  1.233474110E+02  4.344641072E+01  1.461510107E+02  2.606044815E+02  1.716170254E+02  0.00000E+00  9.000E+00
       6     2     1     2   507     0 -8.393217972E+01 -6.513671365E+01 -1.857520383E+02  2.751754446E+02  1.730037667E+02  0.00000E+00  9.000E+00
     -24     2     3     3     0     0  1.377877400E+02  1.796859851E+01  6.405538257E+01  1.733124619E+02  8.139892858E+01  0.00000E+00  9.000E+00
      24     2     4     4     0     0 -4.470701522E+01  1.110079193E+01 -1.616942190E+02  1.860008296E+02  7.955717035E+01  0.00000E+00  9.000E+00
     -11     1     6     6     0     0 -1.932234898E+01 -2.742627108E+01 -1.171861942E+02  1.218940426E+02  0.000000000E+00  0.00000E+00  9.000E+00
      12     1     6     6     0     0 -2.538466624E+01  3.852706301E+01 -4.450802487E+01  6.410678702E+01  2.286830675E-06  0.00000E+00  9.000E+00
      13     1     5     5     0     0 -8.736410337E+00  1.117169089E+01  8.013362860E+00  1.628942992E+01  0.000000000E+00  0.00000E+00  9.000E+00
     -14     1     5     5     0     0  1.465241504E+02  6.796907620E+00  5.604201971E+01  1.570230320E+02  3.754619538E-06  0.00000E+00  9.000E+00
       5     1     4     4   507     0 -3.922516450E+01 -7.623750558E+01 -2.405781929E+01  8.917461497E+01  4.750000000E+00  0.00000E+00  9.000E+00
      -5     1     3     3     0   501 -1.444032903E+01  2.547781221E+01  8.209562815E+01  8.729201956E+01  4.750000000E+00  0.00000E+00  9.000E+00
      21     1     1     2   501   512 -3.941523129E+01  2.169030293E+01  4.690579652E+01  6.499371852E+01  0.000000000E+00  0.00000E+00  9.000E+00
#rwgt            2         113   18.134434445943604                1     4710585           0           1           0
<weights>
0.13550E+02
</weights>
</event>
<event>
     15  10001  1.35503E+01  5.63417E+01 -1.00000E+00  2.56968E-01
      21    -1     0     0   511   501  0.000000000E+00  0.000000000E+00  8.331561241E+01  8.331561241E+01  0.000000000E+00  0.00000E+00  9.000E+00
      21    -1     0     0   507   502  0.000000000E+00  0.000000000E+00 -8.970917260E+02  8.970917260E+02  0.000000000E+00  0.00000E+00  9.000E+00
      -6     2     1     2     0   501  9.918714355E+00  1.503521785E+02 -2.335529639E+02  3.278430624E+02  1.738675592E+02  0.00000E+00  9.000E+00
       6     2     1     2   507     0 -5.424470282E+01 -1.155728909E+02 -3.110549032E+02  3.775625724E+02  1.717520375E+02  0.00000E+00  9.000E+00
     -24     2     3     3     0     0 -6.145798650E+01  6.843615944E+01 -1.264235329E+02  1.750413628E+02  7.871452850E+01  0.00000E+00  9.000E+00
      24     2     4     4     0     0 -8.589154064E+01 -3.303712447E+01 -2.200096642E+02  2.505528472E+02  7.683533413E+01  0.00000E+00  9.000E+00
     -11     1     6     6     0     0  7.994452703E-01  8.249118612E+00 -8.204883921E+01  8.246635124E+01  0.000000000E+00  0.00000E+00  9.000E+00
      12     1     6     6     0     0 -8.669098591E+01 -4.128624308E+01 -1.379608250E+02  1.680864960E+02  1.907348633E-06  0.00000E+00  9.000E+00
      13     1     5     5     0     0 -2.459418427E+01 -1.403097494E+01 -4.642477521E+01  5.437832207E+01  0.000000000E+00  0.00000E+00  9.000E+00
     -14     1     5     5     0     0 -3.686380223E+01  8.246713438E+01 -7.999875771E+01  1.206630407E+02  3.693564745E-06  0.00000E+00  9.000E+00
       5     1     4     4   512     0  2.618582297E+01 -6.751778579E+01 -7.500493454E+01  1.043678659E+02  4.750000000E+00  0.00000E+00  9.000E+00
      -5     1     3     3     0   513  5.025821378E+01  5.943607134E+01 -7.332172965E+01  1.070381856E+02  4.750000000E+00  0.00000E+00  9.000E+00
      21     1     1     2   511   502  4.432598847E+01 -3.477928761E+01 -2.691682464E+02  2.750017035E+02  3.814697266E-06  0.00000E+00  9.000E+00
      21     1     3     3   513   501  2.111848707E+01  2.247994770E+01 -3.380770137E+01  4.576351403E+01  0.000000000E+00  0.00000E+00  9.000E+00
      21     1     4     4   507   512  5.461014843E+00 -1.501798061E+01 -1.604030452E+01  2.264185932E+01  4.768371582E-07  0.00000E+00  9.000E+00
#rwgt            1          17   14.992482876024038                1     4720528           0       11110           0
<weights>
0.19892E+02
</weights>
</event>
<event>
     15  10001  1.35503E+01  4.06122E+01 -1.00000E+00  2.68776E-01
       1    -1     0     0   502     0  0.000000000E+00  0.000000000E+00  1.068984234E+03  1.068984234E+03  0.000000000E+00  0.00000E+00  9.000E+00
      21    -1     0     0   507   502  0.000000000E+00  0.000000000E+00 -5.618243131E+01  5.618243131E+01  0.000000000E+00  0.00000E+00  9.000E+00
      -6     2     1     2     0   501  8.276949770E+00  1.785116132E+01  4.872082287E+02  5.177543593E+02  1.740992434E+02  0.00000E+00  9.000E+00
       6     2     1     2   507     0 -4.178534164E+01  5.095209099E+00  1.622094145E+02  2.417657614E+02  1.742607624E+02  0.00000E+00  9.000E+00
     -24     2     3     3     0     0  4.562457620E+01  2.607570274E+01  1.530475709E+02  1.813235649E+02  8.181156399E+01  0.00000E+00  9.000E+00
      24     2     4     4     0     0 -2.104739076E+01  2.624309589E+00  1.153902611E+01  8.407697411E+01  8.053514012E+01  0.00000E+00  9.000E+00
     -11     1     6     6     0     0  3.067601979E+01  2.399799233E+00  9.914350060E+00  3.232756662E+01  0.000000000E+00  0.00000E+00  9.000E+00
      12     1     6     6     0     0 -5.172341055E+01  2.245103564E-01  1.624676049E+00  5.174940749E+01  1.758968313E-06  0.00000E+00  9.000E+00
      13     1     5     5     0     0 -1.922941356E+01  5.960030626E+00  8.955573864E+00  2.203394232E+01  0.000000000E+00  0.00000E+00  9.000E+00
     -14     1     5     5     0     0  6.485398976E+01  2.011567212E+01  1.440919971E+02  1.592896226E+02  3.303624740E-06  0.00000E+00  9.000E+00
       5     1     4     4   512     0 -8.308626744E+00  6.398378431E+00  7.095426770E+00  1.352331712E+01  4.750000000E+00  0.00000E+00  9.000E+00
      -5     1     3     3     0   511 -2.712765363E+01 -3.589681571E+00  2.430240279E+02  2.446058790E+02  4.750000000E+00  0.00000E+00  9.000E+00
      21     1     4     4   507   512 -1.242932414E+01 -3.927478921E+00  1.435749616E+02  1.441654702E+02  1.907348633E-06  0.00000E+00  9.000E+00
       1     1     1     2   501     0  3.350839187E+01 -2.294637042E+01  3.633841596E+02  3.656465448E+02  0.000000000E+00  0.00000E+00  9.000E+00
      21     1     3     3   511   501 -1.021997281E+01 -4.634859854E+00  9.113662995E+01  9.182491540E+01  1.348699152E-06  0.00000E+00  9.000E+00
#rwgt            1          17   13.816515282134718                1     4730846           0      100111           0
<weights>
0.13363E+02
</weights>
</event>
<event>
     15  10001  1.35503E+01  1.95088E+01 -1.00000E+00  4.10169E-01
      21    -1     0     0   507   511  0.000000000E+00  0.000000000E+00  2.241999167E+02  2.241999167E+02  0.000000000E+00  0.00000E+00  9.000E+00
      21    -1     0     0   501   502  0.000000000E+00  0.000000000E+00 -1.554593196E+03  1.554593196E+03  0.000000000E+00  0.00000E+00  9.000E+00
      -6     2     1     2     0   502 -4.007481687E+01  5.592297458E+01 -1.127787819E+03  1.142978639E+03  1.725150257E+02  0.00000E+00  9.000E+00
       6     2     1     2   507     0  2.065461488E+01 -5.406572111E+01 -3.936476689E+02  4.437787499E+02  1.965486613E+02  0.00000E+00  9.000E+00
     -24     2     3     3     0     0 -1.306912233E+00 -3.000944336E+01 -5.954581821E+02  6.023097710E+02  8.546542546E+01  0.00000E+00  9.000E+00
      24     2     4     4     0     0  7.674117476E+00 -6.591039371E+01 -7.553630266E+01  1.251013264E+02  7.444149900E+01  0.00000E+00  9.000E+00
     -11     1     6     6     0     0  1.719435477E+01  3.751653303E+00 -4.523934082E+01  4.854192720E+01  0.000000000E+00  0.00000E+00  9.000E+00
      12     1     6     6     0     0 -9.520237290E+00 -6.966204701E+01 -3.029696184E+01  7.655939922E+01  3.647102962E-06  0.00000E+00  9.000E+00
      13     1     5     5     0     0  3.421413828E+00  2.709040666E+01 -1.040694709E+02  1.075920581E+02  0.000000000E+00  0.00000E+00  9.000E+00
     -14     1     5     5     0     0 -4.728326061E+00 -5.709985002E+01 -4.913887112E+02  4.947177129E+02  5.394796609E-06  0.00000E+00  9.000E+00
       5     1     4     4   513     0  1.229884443E+01  1.010785950E+01 -3.023387103E+02  3.027947962E+02  4.750000000E+00  0.00000E+00  9.000E+00
      -5     1     3     3     0   512 -3.554943782E+01  8.064474870E+01 -4.893477240E+02  4.972434972E+02  4.750000000E+00  0.00000E+00  9.000E+00
      21     1     1     2   501   511  1.942020199E+01 -1.857253472E+00  1.910422088E+02  1.920357237E+02  6.607249480E-06  0.00000E+00  9.000E+00
      21     1     3     3   512   502 -3.218466814E+00  5.287669237E+00 -4.298191311E+01  4.342537080E+01  6.743495762E-07  0.00000E+00  9.000E+00
      21     1     4     4   507   513  6.816529759E-01  1.736813098E+00 -1.577265603E+01  1.588262726E+01  0.000000000E+00  0.00000E+00  9.000E+00
#rwgt            1          17   84.566834674403950                1     4735930           0       11110           0
<weights>
0.19623E+02
</weights>
</event>
<event>
     15  10001  1.35503E+01  1.98016E+01 -1.00000E+00  2.33949E-01
      21    -1     0     0   502   512  0.000000000E+00  0.000000000E+00  5.050062712E+01  5.050062712E+01  0.000000000E+00  0.00000E+00  9.000E+00
      21    -1     0     0   507   502  0.000000000E+00  0.000000000E+00 -8.488318881E+02  8.488318881E+02  0.000000000E+00  0.00000E+00  9.000E+00
      -6     2     1     2     0   501 -5.162379577E+01  9.411859845E+01 -4.019369103E+02  4.487421833E+02  1.682050544E+02  0.00000E+00  9.000E+00
       6     2     1     2   507     0  4.470080539E+01 -7.556666987E+01 -3.713099737E+02  4.186321121E+02  1.722592961E+02  0.00000E+00  9.000E+00
     -24     2     3     3     0     0 -9.554574025E+01  5.210184958E+01 -2.715976695E+02  3.039860919E+02  8.245397953E+01  0.00000E+00  9.000E+00
      24     2     4     4     0     0 -8.650059895E+00 -7.025033582E+01 -1.696286452E+02  2.086013199E+02  9.864431128E+01  0.00000E+00  9.000E+00
     -11     1     6     6     0     0 -5.148718993E+01 -5.441341404E+01 -1.169078705E+02  1.388495608E+02  0.000000000E+00  0.00000E+00  9.000E+00
      12     1     6     6     0     0  4.283713004E+01 -1.583692178E+01 -5.272077469E+01  6.975175901E+01  1.507891493E-06  0.00000E+00  9.000E+00
      13     1     5     5     0     0 -8.656844905E+01  7.223710659E+01 -2.067712444E+02  2.355135738E+02  0.000000000E+00  0.00000E+00  9.000E+00
     -14     1     5     5     0     0 -8.977291203E+00 -2.013525701E+01 -6.482642515E+01  6.847251807E+01  1.651812370E-06  0.00000E+00  9.000E+00
       5     1     4     4   511     0  5.420301332E+01 -1.364195154E+00 -1.832972852E+02  1.912074395E+02  4.750000000E+00  0.00000E+00  9.000E+00
      -5     1     3     3     0   514  3.998668262E+01  4.298205553E+01 -1.208701065E+02  1.344564503E+02  4.750000000E+00  0.00000E+00  9.000E+00
      21     1     1     2   501   512  6.922990379E+00 -1.855192858E+01 -2.508437698E+01  3.195821989E+01  7.539457465E-07  0.00000E+00  9.000E+00
      21     1     4     4   507   511 -8.521480363E-01 -3.952138889E+00 -1.838404334E+01  1.882335272E+01  4.129530925E-07  0.00000E+00  9.000E+00
      21     1     3     3   514   501  3.935261866E+00 -9.653066587E-01 -9.469134297E+00  1.029964112E+01  1.192092896E-07  0.00000E+00  9.000E+00
#rwgt            1          17   39.833157887832812                1     4745184           0       11011           0
<weights>
0.14250E+02
</weights>
</event>
<event>
     14  10001  1.35503E+01  4.96376E+01 -1.00000E+00  2.98720E-01
      21    -1     0     0   502   511  0.000000000E+00  0.000000000E+00  1.246550634E+03  1.246550634E+03  0.000000000E+00  0.00000E+00  9.000E+00
      21    -1     0     0   507   502  0.000000000E+00  0.000000000E+00 -4.737273128E+01  4.737273128E+01  0.000000000E+00  0.00000E+00  9.000E+00
      -6     2     1     2     0   501  5.572061431E+01  4.137716697E+01  5.919686113E+02  6.208530726E+02  1.738241758E+02  0.00000E+00  9.000E+00
       6     2     1     2   507     0 -7.198984007E+01  5.518472772E+00  2.483349116E+02  3.107793748E+02  1.723386227E+02  0.00000E+00  9.000E+00
     -24     2     3     3     0     0  6.898013853E+01  4.047714923E+01  2.290993384E+02  2.576299996E+02  8.654507912E+01  0.00000E+00  9.000E+00
      24     2     4     4     0     0 -6.267285159E+01  6.012097997E+01  2.160170123E+02  2.464734717E+02  8.089131025E+01  0.00000E+00  9.000E+00
     -11     1     6     6     0     0 -8.468297955E+00  6.423430817E+00  1.341251951E+02  1.345456818E+02  0.000000000E+00  0.00000E+00  9.000E+00
      12     1     6     6     0     0 -5.420455364E+01  5.369754915E+01  8.189181723E+01  1.119277899E+02  1.651812370E-06  0.00000E+00  9.000E+00
      13     1     5     5     0     0  6.352166254E+01  4.684557663E+01  2.346524299E+02  2.475707425E+02  0.000000000E+00  0.00000E+00  9.000E+00
     -14     1     5     5     0     0  5.458475997E+00 -6.368427401E+00 -5.553091549E+00  1.005925711E+01  7.251217997E-07  0.00000E+00  9.000E+00
       5     1     4     4   507     0 -9.316988480E+00 -5.460250719E+01  3.231789931E+01  6.430590316E+01  4.750000000E+00  0.00000E+00  9.000E+00
      -5     1     3     3     0   512 -1.066449800E+01 -1.556468871E+00  3.152433273E+02  3.154632657E+02  4.750000000E+00  0.00000E+00  9.000E+00
      21     1     1     2   501   511  1.626922577E+01 -4.689563974E+01  3.588743793E+02  3.622909174E+02  5.394796609E-06  0.00000E+00  9.000E+00
      21     1     3     3   512   501 -2.595026228E+00  2.456486612E+00  4.762594566E+01  4.775980724E+01  6.743495762E-07  0.00000E+00  9.000E+00
#rwgt            1          17   95.124620617792715                1     4751151           0         111           0
<weights>
0.10943E+02
</weights>
</event>
<event>
     15  10001  1.35503E+01  1.04783E+02 -1.00000E+00  3.10811E-01
      -1    -1     0     0     0   501  0.000000000E+00  0.000000000E+00  4.286419402E+02  4.286419402E+02  0.000000000E+00  0.00000E+00  9.000E+00
      21    -1     0     0   501   502  0.000000000E+00  0.000000000E+00 -5.636004229E+02  5.636004229E+02  0.000000000E+00  0.00000E+00  9.000E+00
      -6     2     1     2     0   502  2.508818779E+01  1.507477428E+02 -4.283251209E+02  4.875481436E+02  1.757455093E+02  0.00000E+00  9.000E+00
       6     2     1     2   507     0  6.788602393E+01 -1.024237889E+02  1.589842265E+01  2.081001884E+02  1.671938510E+02  0.00000E+00  9.000E+00
     -24     2     3     3     0     0 -3.399726923E+01  1.478370315E+02 -3.124289839E+02  3.562200883E+02  7.917877913E+01  0.00000E+00  9.000E+00
      24     2     4     4     0     0 -2.385327790E+01 -2.854252426E+01 -5.550918717E+00  8.600720853E+01  7.734838501E+01  0.00000E+00  9.000E+00
     -11     1     6     6     0     0  1.756925297E+01 -4.954822220E+00  2.382535874E+01  3.001460698E+01  0.000000000E+00  0.00000E+00  9.000E+00
      12     1     6     6     0     0 -4.142253088E+01 -2.358770204E+01 -2.937627745E+01  5.599260156E+01  1.581489940E-06  0.00000E+00  9.000E+00
      13     1     5     5     0     0 -5.497206999E+01  6.359351934E+01 -1.631567350E+02  1.835379643E+02  0.000000000E+00  0.00000E+00  9.000E+00
     -14     1     5     5     0     0  2.097480077E+01  8.424351220E+01 -1.492722490E+02  1.726821240E+02  3.814697266E-06  0.00000E+00  9.000E+00
       5     1     4     4   511     0  8.692062974E+01 -7.520375262E+01  2.180035885E+01  1.170838094E+02  4.750000000E+00  0.00000E+00  9.000E+00
      -5     1     3     3     0   512  5.817375586E+01 -1.784055313E-01 -1.072898756E+02  1.221388456E+02  4.750000000E+00  0.00000E+00  9.000E+00
      -1     1     1     2     0   507 -9.297421172E+01 -4.832395397E+01  2.774682156E+02  2.965940310E+02  0.000000000E+00  0.00000E+00  9.000E+00
      21     1     4     4   507   511  4.818672095E+00  1.322488033E+00 -3.510174888E-01  5.009170454E+00  1.164413959E-07  0.00000E+00  9.000E+00
      21     1     3     3   512   502  9.117011611E-01  3.089116807E+00 -8.606261384E+00  9.189209796E+00  0.000000000E+00  0.00000E+00  9.000E+00
#rwgt            1          17   11.242938854927184                1     4760529           0       11011           0
<weights>
0.17413E+02
</weights>
</event>
<event>
     14  10001  1.35503E+01  4.14150E+01 -1.00000E+00  2.00106E-01
      21    -1     0     0   502   501  0.000000000E+00  0.000000000E+00  2.064437735E+02  2.064437735E+02  0.000000000E+00  0.00000E+00  9.000E+00
      21    -1     0     0   507   511  0.000000000E+00  0.000000000E+00 -2.765925624E+02  2.765925624E+02  0.000000000E+00  0.00000E+00  9.000E+00
      -6     2     1     2     0   501  5.359232432E+01 -6.224556588E+00  4.524906726E+01  1.880393628E+02  1.743572239E+02  0.00000E+00  9.000E+00
       6     2     1     2   507     0 -9.433606015E+01  1.365080638E+01 -1.442354527E+02  2.445310622E+02  1.729333333E+02  0.00000E+00  9.000E+00
     -24     2     3     3     0     0 -3.439125313E+01 -1.422178677E+01  2.747552258E+01  9.223312467E+01  7.979365534E+01  0.00000E+00  9.000E+00
      24     2     4     4     0     0 -2.657793321E+01  1.725263243E+01 -1.539489635E+02  1.758211523E+02  7.879564957E+01  0.00000E+00  9.000E+00
     -11     1     6     6     0     0  3.749940392E+00 -1.645829565E+01 -1.144401809E+02  1.156784014E+02  0.000000000E+00  0.00000E+00  9.000E+00
      12     1     6     6     0     0 -3.032787361E+01  3.371092807E+01 -3.950878262E+01  6.014275096E+01  1.430511475E-06  0.00000E+00  9.000E+00
      13     1     5     5     0     0  1.232972594E+00  2.965197799E+01  1.860120714E+01  3.502520417E+01  0.000000000E+00  0.00000E+00  9.000E+00
     -14     1     5     5     0     0 -3.562422573E+01 -4.387376476E+01  8.874315448E+00  5.720792050E+01  2.098896129E-06  0.00000E+00  9.000E+00
       5     1     4     4   507     0 -6.775812694E+01 -3.601826042E+00  9.713510768E+00  6.870990983E+01  4.750000000E+00  0.00000E+00  9.000E+00
      -5     1     3     3     0   512  8.871173666E+01  4.885083871E+00  1.279256735E+01  8.988797776E+01  4.750000000E+00  0.00000E+00  9.000E+00
      21     1     1     2   502   511  4.074373584E+01 -7.426249797E+00  2.883759648E+01  5.046591094E+01  3.371747881E-07  0.00000E+00  9.000E+00
      21     1     3     3   512   501 -7.281592109E-01  3.112146312E+00  4.980977325E+00  5.918260354E+00  1.576990671E-07  0.00000E+00  9.000E+00
#rwgt            1          17   5.9883399032379243                1     4770243           0         111           0
<weights>
0.30630E+02
</weights>
</event>
<event>
     13  10001  1.35503E+01  2.15889E+02 -1.00000E+00  1.10453E-01
      21    -1     0     0   502   501  0.000000000E+00  0.000000000E+00  1.237370378E+03  1.237370378E+03  0.000000000E+00  0.00000E+00  9.000E+00
       1    -1     0     0   507     0  0.000000000E+00  0.000000000E+00 -3.668098633E+02  3.668098633E+02  0.000000000E+00  0.00000E+00  9.000E+00
      -6     2     1     2     0   501 -1.588163145E+02 -1.858109516E+02  8.324469783E+02  8.847816499E+02  1.735576697E+02  0.00000E+00  9.000E+00
       6     2     1     2   507     0  1.247374767E+02 -2.737180626E+01  3.071206374E+02  3.744738520E+02  1.720433841E+02  0.00000E+00  9.000E+00
     -24     2     3     3     0     0 -1.517367411E+02 -7.522698393E+01  4.875788292E+02  5.225171926E+02  8.128938483E+01  0.00000E+00  9.000E+00
      24     2     4     4     0     0  5.399018827E+01 -3.488237468E+01  5.932720690E+01  1.166255746E+02  7.713680491E+01  0.00000E+00  9.000E+00
     -11     1     6     6     0     0  4.620111688E+01 -2.554801966E+01  7.809395336E+01  9.426510521E+01  0.000000000E+00  0.00000E+00  9.000E+00
      12     1     6     6     0     0  7.789071399E+00 -9.334355021E+00 -1.876674646E+01  2.236046936E+01  1.752011592E-06  0.00000E+00  9.000E+00
      13     1     5     5     0     0 -7.616863079E+01 -8.085132588E+01  2.628776897E+02  2.853826851E+02  0.000000000E+00  0.00000E+00  9.000E+00
     -14     1     5     5     0     0 -7.556811031E+01  5.624341945E+00  2.247011395E+02  2.371345074E+02  0.000000000E+00  0.00000E+00  9.000E+00
       5     1     4     4   507     0  7.074728847E+01  7.510568426E+00  2.477934305E+02  2.578482774E+02  4.750000000E+00  0.00000E+00  9.000E+00
      -5     1     3     3     0   501 -7.079573428E+00 -1.105839677E+02  3.448681491E+02  3.622644573E+02  4.750000000E+00  0.00000E+00  9.000E+00
       1     1     1     2   502     0  3.407883778E+01  2.131827579E+02 -2.690071010E+02  3.449247394E+02  0.000000000E+00  0.00000E+00  9.000E+00
#rwgt            2          86  0.64212164068579070                1     4802403           0           1           0
<weights>
0.13550E+02
</weights>
</event>
<event>
     15  10001  1.35503E+01  4.06673E+00 -1.00000E+00  3.36248E-01
      21    -1     0     0   507   511  0.000000000E+00  0.000000000E+00  1.820251109E+02  1.820251109E+02  0.000000000E+00  0.00000E+00  9.000E+00
      21    -1     0     0   501   502  0.000000000E+00  0.000000000E+00 -4.478258444E+02  4.478258444E+02  0.000000000E+00  0.00000E+00  9.000E+00
      -6     2     1     2     0   502  2.562849700E+01  7.239672342E+01 -3.547227068E+02  4.018072755E+02  1.724029654E+02  0.00000E+00  9.000E+00
       6     2     1     2   507     0 -2.610415598E+01 -6.835790781E+01  1.028180445E+02  2.135647614E+02  1.722908196E+02  0.00000E+00  9.000E+00
     -24     2     3     3     0     0 -3.722701849E+01  8.634174473E+01 -2.395146177E+02  2.696391976E+02  8.060581241E+01  0.00000E+00  9.000E+00
      24     2     4     4     0     0 -3.884170695E+00  1.546721812E+01 -1.437931203E+00  7.712860243E+01  7.544820772E+01  0.00000E+00  9.000E+00
     -11     1     6     6     0     0 -2.614374479E+01 -2.157568431E+01 -8.877711255E-01  3.390860780E+01  0.000000000E+00  0.00000E+00  9.000E+00
      12     1     6     6     0     0  2.225957410E+01  3.704290244E+01 -5.501600779E-01  4.321999463E+01  1.682017043E-06  0.00000E+00  9.000E+00
      13     1     5     5     0     0 -3.318352212E+01  9.128048162E+01 -2.434716954E+02  2.621292409E+02  0.000000000E+00  0.00000E+00  9.000E+00
     -14     1     5     5     0     0 -4.043496364E+00 -4.938736897E+00  3.957077734E+00  7.509956669E+00  5.430241572E-07  0.00000E+00  9.000E+00
       5     1     4     4   513     0 -2.146525750E+01 -8.062815811E+01  1.035663413E+02  1.330797006E+02  4.750000000E+00  0.00000E+00  9.000E+00
      -5     1     3     3     0   514  5.163824321E+01 -1.331134049E+01 -9.519267287E+01  1.092149597E+02  4.750000000E+00  0.00000E+00  9.000E+00
      21     1     1     2   501   511  4.756589795E-01 -4.038815619E+00 -1.389607121E+01  1.447891840E+01  2.920019320E-07  0.00000E+00  9.000E+00
      21     1     4     4   507   513 -7.547277837E-01 -3.196967818E+00  6.896344428E-01  3.356458390E+00  4.998001406E-08  0.00000E+00  9.000E+00
      21     1     3     3   514   502  1.121727227E+01 -6.336808127E-01 -2.001541624E+01  2.295311822E+01  5.840038640E-07  0.00000E+00  9.000E+00
#rwgt            1          17   7.1560553942568808                1     4805145           0       11011           0
<weights>
0.13638E+02
</weights>
</event>
<event>
     15  10001  1.35503E+01  6.82989E+01 -1.00000E+00  3.68273E-01
      21    -1     0     0   502   512  0.000000000E+00  0.000000000E+00  3.729288819E+02  3.729288819E+02  0.000000000E+00  0.00000E+00  9.000E+00
      21    -1     0     0   507   502  0.000000000E+00  0.000000000E+00 -3.068280420E+02  3.068280420E+02  0.000000000E+00  0.00000E+00  9.000E+00
      -6     2     1     2     0   501  1.409283684E+02  5.401799476E+01  2.250615658E+02  3.239969920E+02  1.776023469E+02  0.00000E+00  9.000E+00
       6     2     1     2   507     0 -1.357816060E+02  1.408667624E+01 -5.195578946E+01  2.288158820E+02  1.761312716E+02  0.00000E+00  9.000E+00
     -24     2     3     3     0     0  1.339991318E+02 -4.792585602E+00  2.078497107E+02  2.610186805E+02  8.336973744E+01  0.00000E+00  9.000E+00
      24     2     4     4     0     0 -1.103183938E+02  5.623848304E+01 -8.316288398E+01  1.701411738E+02  8.184765581E+01  0.00000E+00  9.000E+00
     -11     1     6     6     0     0  8.890268524E-01 -9.479065579E+00 -2.819362696E+01  2.975774948E+01  0.000000000E+00  0.00000E+00  9.000E+00
      12     1     6     6     0     0 -1.112074206E+02  6.571754862E+01 -5.496925702E+01  1.403834243E+02  2.697398305E-06  0.00000E+00  9.000E+00
      13     1     5     5     0     0  1.002149916E+02 -3.777648925E+01  1.168929855E+02  1.585373071E+02  0.000000000E+00  0.00000E+00  9.000E+00
     -14     1     5     5     0     0  3.378414017E+01  3.298390365E+01  9.095672526E+01  1.024813734E+02  1.348699152E-06  0.00000E+00  9.000E+00
       5     1     4     4   513     0 -2.222466170E+01 -3.790469687E+01  2.634529457E+01  5.145229517E+01  4.750000000E+00  0.00000E+00  9.000E+00
      -5     1     3     3     0   511  7.591063138E+00  5.915701952E+01  1.706506853E+01  6.221700943E+01  4.750000000E+00  0.00000E+00  9.000E+00
      21     1     1     2   501   512 -5.146762391E+00 -6.810467100E+01 -1.070049365E+02  1.269440499E+02  1.348699152E-06  0.00000E+00  9.000E+00
      21     1     3     3   511   501 -6.618265768E-01 -3.464391550E-01  1.467865872E-01  7.613020478E-01  4.194054845E-08  0.00000E+00  9.000E+00
      21     1     4     4   507   513 -3.238550466E+00 -4.247109941E+00  4.861799946E+00  7.222413080E+00  1.332800375E-07  0.00000E+00  9.000E+00
#rwgt            1          17   23.784804604037355                1     4813997           0       11110           0
<weights>
0.14536E+02
</weights>
</event>
<event>
     14  10001  1.35503E+01  2.31172E+01 -1.00000E+00  1.95070E-01
       2    -1     0     0   507     0  0.000000000E+00  0.000000000E+00  2.281676304E+03  2.281676304E+03  0.000000000E+00  0.00000E+00  9.000E+00
      21    -1     0     0   501   502  0.000000000E+00  0.000000000E+00 -1.970079833E+02  1.970079833E+02  0.000000000E+00  0.00000E+00  9.000E+00
      -6     2     1     2     0   502 -2.443743121E+02  2.681115919E+02  1.253584468E+02  4.211279979E+02  1.732957596E+02  0.00000E+00  9.000E+00
       6     2     1     2   507     0  2.601831231E+02 -2.849783777E+02  8.622498934E+02  9.602527727E+02  1.723443514E+02  0.00000E+00  9.000E+00
     -24     2     3     3     0     0 -5.095985044E+01  7.964963609E+01  7.071978820E+01  1.446440243E+02  8.354420641E+01  0.00000E+00  9.000E+00
      24     2     4     4     0     0  2.740712629E+02 -2.839157019E+02  7.919624727E+02  8.884412575E+02  8.000079354E+01  0.00000E+00  9.000E+00
     -11     1     6     6     0     0  1.999283084E+02 -2.525354273E+02  6.285536417E+02  7.062755490E+02  0.000000000E+00  0.00000E+00  9.000E+00
      12     1     6     6     0     0  7.414295442E+01 -3.138027459E+01  1.634088309E+02  1.821657085E+02  3.303624740E-06  0.00000E+00  9.000E+00
      13     1     5     5     0     0 -1.902857108E+01 -1.601196527E+01  1.905766716E+01  3.133152130E+01  0.000000000E+00  0.00000E+00  9.000E+00
     -14     1     5     5     0     0 -3.193127936E+01  9.566160136E+01  5.166212104E+01  1.133125030E+02  2.336015456E-06  0.00000E+00  9.000E+00
       5     1     4     4   507     0 -1.388813975E+01 -1.062675879E+00  7.028742075E+01  7.181151524E+01  4.750000000E+00  0.00000E+00  9.000E+00
      -5     1     3     3     0   512 -1.585171740E+02  1.553715440E+02  3.603833909E+01  2.249207316E+02  4.750000000E+00  0.00000E+00  9.000E+00
       2     1     1     2   501     0 -1.580881102E+01  1.686678587E+01  1.097059980E+03  1.097303517E+03  0.000000000E+00  0.00000E+00  9.000E+00
      21     1     3     3   512   502 -3.489728768E+01  3.309041178E+01  1.860031954E+01  5.156324201E+01  4.129530925E-07  0.00000E+00  9.000E+00
#rwgt            1          17   6.0168895362017620                1     4826806           0         111           0
<weights>
0.10261E+02
</weights>
</event>
<event>
     15  10001 -1.35503E+01  5.18112E+01 -1.00000E+00  5.45516E-01
      21    -1     0     0   502   501  0.000000000E+00  0.000000000E+00  2.951219034E+02  2.951219034E+02  0.000000000E+00  0.00000E+00  9.000E+00
      21    -1     0     0   511   502  0.000000000E+00  0.000000000E+00 -1.371938916E+03  1.371938916E+03  0.000000000E+00  0.00000E+00  9.000E+00
      -6     2     1     2     0   501  5.670389338E+01  1.752379859E+02 -4.936707684E+02  5.539900592E+02  1.710861622E+02  0.00000E+00  9.000E+00
       6     2     1     2   507     0 -4.894097826E+00 -1.748612418E+02 -8.276183563E+02  8.631687584E+02  1.717782166E+02  0.00000E+00  9.000E+00
     -24     2     3     3     0     0 -7.713762740E+00  7.800695671E+01 -1.327333773E+02  1.744598856E+02  8.169158340E+01  0.00000E+00  9.000E+00
      24     2     4     4     0     0  4.296972978E+01 -1.612037105E+02 -5.520002064E+02  5.821945037E+02  8.008232215E+01  0.00000E+00  9.000E+00
     -11     1     6     6     0     0 -9.026513488E+00 -1.003732806E+02 -2.445738441E+02  2.645234179E+02  0.000000000E+00  0.00000E+00  9.000E+00
      12     1     6     6     0     0  5.199624327E+01 -6.083042992E+01 -3.074263623E+02  3.176710858E+02  7.629394531E-06  0.00000E+00  9.000E+00
      13     1     5     5     0     0 -1.802980622E+01 -9.146636636E+00 -7.557523005E+00  2.158358237E+01  0.000000000E+00  0.00000E+00  9.000E+00
     -14     1     5     5     0     0  1.031604348E+01  8.715359335E+01 -1.251758543E+02  1.528763032E+02  4.264961200E-06  0.00000E+00  9.000E+00
       5     1     4     4   513     0 -4.995116953E+01 -1.314247301E+01 -2.535162873E+02  2.587680706E+02  4.750000000E+00  0.00000E+00  9.000E+00
      -5     1     3     3     0   512  6.410882331E+01  9.704575422E+01 -3.608479299E+02  3.791590835E+02  4.750000000E+00  0.00000E+00  9.000E+00
      21     1     1     2   511   507 -5.180979555E+01 -3.767441393E-01  2.444721121E+02  2.499020017E+02  7.629394531E-06  0.00000E+00  9.000E+00
      21     1     4     4   507   513  2.087341923E+00 -5.150582674E-01 -2.210186267E+01  2.220618415E+01  3.371747881E-07  0.00000E+00  9.000E+00
      21     1     3     3   512   501  3.088328083E-01  1.852749781E-01 -8.946121991E-02  3.710900576E-01  2.634178032E-09  0.00000E+00  9.000E+00
#rwgt            1          17  -2.7052081404184909                1     4841971           0       11011           0
<weights>
-.79224E+01
</weights>
</event>
<event>
     14  10001  1.35503E+01  2.71656E+01 -1.00000E+00  7.52363E-01
       2    -1     0     0   507     0  0.000000000E+00  0.000000000E+00  3.103502651E+03  3.103502651E+03  0.000000000E+00  0.00000E+00  9.000E+00
      21    -1     0     0   501   502  0.000000000E+00  0.000000000E+00 -8.205807524E+01  8.205807524E+01  0.000000000E+00  0.00000E+00  9.000E+00
      -6     2     1     2     0   502 -3.289074920E+00 -2.630416002E+00  9.361748885E+01  1.963622165E+02  1.725576679E+02  0.00000E+00  9.000E+00
       6     2     1     2   507     0  2.620512329E+01 -1.195806202E+01  2.205901092E+02  2.818252399E+02  1.730195533E+02  0.00000E+00  9.000E+00
     -24     2     3     3     0     0  5.986344824E+00 -3.096310958E+01  1.255673552E+02  1.524061998E+02  8.041105998E+01  0.00000E+00  9.000E+00
      24     2     4     4     0     0 -2.921485015E+00  1.835534539E+01  3.642360987E+01  9.087942760E+01  8.115994841E+01  0.00000E+00  9.000E+00
     -11     1     6     6     0     0 -1.096800472E+01  2.843167668E+01  5.812899408E+01  6.563259343E+01  0.000000000E+00  0.00000E+00  9.000E+00
      12     1     6     6     0     0  8.046519710E+00 -1.007633129E+01 -2.170538422E+01  2.524683417E+01  2.654916936E-06  0.00000E+00  9.000E+00
      13     1     5     5     0     0  6.956999242E+00 -5.450231368E+01  5.390961945E+01  7.697499012E+01  0.000000000E+00  0.00000E+00  9.000E+00
     -14     1     5     5     0     0 -9.706544181E-01  2.353920410E+01  7.165773579E+01  7.543120971E+01  1.651812370E-06  0.00000E+00  9.000E+00
       5     1     4     4   511     0  2.508016403E+01 -3.258948152E+01  1.800288874E+02  1.847269653E+02  4.750000000E+00  0.00000E+00  9.000E+00
      -5     1     3     3     0   502 -9.275419744E+00  2.833269358E+01 -3.194986639E+01  4.395601664E+01  4.750000000E+00  0.00000E+00  9.000E+00
       2     1     1     2   501     0 -2.291604838E+01  1.458847802E+01  2.707236978E+03  2.707373270E+03  0.000000000E+00  0.00000E+00  9.000E+00
      21     1     4     4   507   511  4.046444278E+00  2.276074109E+00  4.137611945E+00  6.218846939E+00  1.032382731E-07  0.00000E+00  9.000E+00
#rwgt            1          17   6.2298800347158947                1     4852619           0         110           0
<weights>
0.12646E+02
</weights>
</event>
<event>
     14  10001 -1.35503E+01  3.70772E+01 -1.00000E+00  1.85815E-01
      21    -1     0     0   511   501  0.000000000E+00  0.000000000E+00  1.299561885E+02  1.299561885E+02  0.000000000E+00  0.00000E+00  9.000E+00
       2    -1     0     0   507     0  0.000000000E+00  0.000000000E+00 -8.951362240E+02  8.951362240E+02  0.000000000E+00  0.00000E+00  9.000E+00
      -6     2     1     2     0   501  3.168883439E+01 -8.196436693E+01 -1.219830839E+02  2.296119472E+02  1.735495142E+02  0.00000E+00  9.000E+00
       6     2     1     2   507     0 -4.049898011E+01  4.594908356E+01 -7.022676477E+02  7.257376058E+02  1.725217022E+02  0.00000E+00  9.000E+00
     -24     2     3     3     0     0 -1.085090968E+01 -2.620824907E+01 -1.324511080E+02  1.573278837E+02  8.002594838E+01  0.00000E+00  9.000E+00
      24     2     4     4     0     0 -6.094673029E+01 -2.919402547E+01 -4.027973101E+02  4.162708985E+02  8.043004923E+01  0.00000E+00  9.000E+00
     -11     1     6     6     0     0 -5.251828882E+01  1.714157028E+01 -1.697852243E+02  1.785469868E+02  0.000000000E+00  0.00000E+00  9.000E+00
      12     1     6     6     0     0 -8.428441471E+00 -4.633559575E+01 -2.330120858E+02  2.377239117E+02  2.697398305E-06  0.00000E+00  9.000E+00
      13     1     5     5     0     0  2.047179131E+01 -4.261434385E+01 -9.315701994E+01  1.044667742E+02  0.000000000E+00  0.00000E+00  9.000E+00
     -14     1     5     5     0     0 -3.132270098E+01  1.640609478E+01 -3.929408805E+01  5.286110951E+01  4.768371582E-07  0.00000E+00  9.000E+00
       5     1     4     4   507     0  2.044775019E+01  7.514310903E+01 -2.994703376E+02  3.094667073E+02  4.750000000E+00  0.00000E+00  9.000E+00
      -5     1     3     3     0   512  2.827171531E+01 -2.804529950E+01  2.896322052E+00  4.020920158E+01  4.750000000E+00  0.00000E+00  9.000E+00
       2     1     1     2   511     0  8.810145718E+00  3.601528337E+01  5.907069613E+01  6.974285945E+01  0.000000000E+00  0.00000E+00  9.000E+00
      21     1     3     3   512   501  1.426802875E+01 -2.771081836E+01  7.571702069E+00  3.207486198E+01  1.218619841E-06  0.00000E+00  9.000E+00
#rwgt            1           6 -0.75033233024554125                1     4860457           0         111           0
<weights>
-.13842E+02
</weights>
</event>
<event>
     14  10001  1.35503E+01  3.12642E+01 -1.00000E+00  1.75995E-01
       1    -1     0     0   507     0  0.000000000E+00  0.000000000E+00  1.340277080E+03  1.340277080E+03  0.000000000E+00  0.00000E+00  9.000E+00
      21    -1     0     0   512   502  0.000000000E+00  0.000000000E+00 -1.196290574E+02  1.196290574E+02  0.000000000E+00  0.00000E+00  9.000E+00
      -6     2     1     2     0   502  1.153119459E+01 -1.124473155E+02  2.970514707E+02  3.615225464E+02  1.722835108E+02  0.00000E+00  9.000E+00
       6     2     1     2   507     0 -3.692066388E+01  9.420385182E+01  9.979419343E+02  1.017731963E+03  1.721997176E+02  0.00000E+00  9.000E+00
     -24     2     3     3     0     0 -1.365387458E+01 -9.619113266E+01  9.581756540E+01  1.576542308E+02  7.896004272E+01  0.00000E+00  9.000E+00
      24     2     4     4     0     0 -2.920527797E+01  2.419946707E+01  2.325308508E+02  2.490728509E+02  8.079681931E+01  0.00000E+00  9.000E+00
     -11     1     6     6     0     0  2.790096385E+01  6.053669119E+00  6.032152350E+01  6.673677316E+01  0.000000000E+00  0.00000E+00  9.000E+00
      12     1     6     6     0     0 -5.710624181E+01  1.814579795E+01  1.722093273E+02  1.823360777E+02  2.697398305E-06  0.00000E+00  9.000E+00
      13     1     5     5     0     0  2.309320718E+01 -1.549554791E+00  1.241807370E+01  2.626605970E+01  0.000000000E+00  0.00000E+00  9.000E+00
     -14     1     5     5     0     0 -3.674708176E+01 -9.464157787E+01  8.339949170E+01  1.313881711E+02  1.907348633E-06  0.00000E+00  9.000E+00
       5     1     4     4   507     0 -7.715385918E+00  7.000438475E+01  7.654110835E+02  7.686591119E+02  4.750000000E+00  0.00000E+00  9.000E+00
      -5     1     3     3     0   511  1.303516508E+01 -1.061322801E+01  7.931858970E+01  8.121919299E+01  4.750000000E+00  0.00000E+00  9.000E+00
       1     1     1     2   512     0  2.538946929E+01  1.824346372E+01 -7.434538282E+01  8.065162780E+01  0.000000000E+00  0.00000E+00  9.000E+00
      21     1     3     3   511   502  1.214990409E+01 -5.642954872E+00  1.219153156E+02  1.226491226E+02  2.336015456E-06  0.00000E+00  9.000E+00
#rwgt            1           4  0.73865422041109619                1     4864274           0         111           0
<weights>
0.13585E+02
</weights>
</event>
<event>
     15  10001 -1.35503E+01  1.78679E+02 -1.00000E+00  1.96614E-01
       2    -1     0     0   507     0  0.000000000E+00  0.000000000E+00  7.936981032E+02  7.936981032E+02  0.000000000E+00  0.00000E+00  9.000E+00
      21    -1     0     0   511   502  0.000000000E+00  0.000000000E+00 -1.782839175E+02  1.782839175E+02  0.000000000E+00  0.00000E+00  9.000E+00
      -6     2     1     2     0   502 -6.719874936E+01 -2.624985389E+02  3.183570520E+02  4.522568307E+02  1.725220957E+02  0.00000E+00  9.000E+00
       6     2     1     2   507     0  1.425223743E+02  1.004727040E+02  2.001914524E+02  3.164790835E+02  1.722643353E+02  0.00000E+00  9.000E+00
     -24     2     3     3     0     0 -3.644359229E+01 -1.736155493E+02  1.118724900E+02  2.250855400E+02  8.171628930E+01  0.00000E+00  9.000E+00
      24     2     4     4     0     0  1.517096299E+02  1.235868514E+02  1.989875147E+02  2.901146565E+02  7.925251586E+01  0.00000E+00  9.000E+00
     -11     1     6     6     0     0  7.342652878E+01  1.075635942E+02  1.095781744E+02  1.702021099E+02  0.000000000E+00  0.00000E+00  9.000E+00
      12     1     6     6     0     0  7.828310116E+01  1.602325723E+01  8.940934034E+01  1.199125466E+02  2.336015456E-06  0.00000E+00  9.000E+00
      13     1     5     5     0     0  5.633182205E-01 -1.186170446E+02  3.520287519E+01  1.237318189E+02  0.000000000E+00  0.00000E+00  9.000E+00
     -14     1     5     5     0     0 -3.700691051E+01 -5.499850468E+01  7.666961479E+01  1.013537211E+02  1.651812370E-06  0.00000E+00  9.000E+00
       5     1     4     4   513     0 -9.891579076E+00 -2.253826680E+01  2.818668856E-01  2.506907968E+01  4.750000000E+00  0.00000E+00  9.000E+00
      -5     1     3     3     0   512 -2.061706792E+01 -4.817123414E+01  1.085514260E+02  1.206296227E+02  4.750000000E+00  0.00000E+00  9.000E+00
       2     1     1     2   511     0 -7.532362498E+01  1.620258348E+02  9.686568133E+01  2.032461066E+02  0.000000000E+00  0.00000E+00  9.000E+00
      21     1     3     3   512   502 -1.013808915E+01 -4.071175543E+01  9.793313601E+01  1.065416680E+02  1.348699152E-06  0.00000E+00  9.000E+00
      21     1     4     4   507   513  7.043234718E-01 -5.758805708E-01  9.220707625E-01  1.295347241E+00  1.825012075E-08  0.00000E+00  9.000E+00
#rwgt            1           8 -0.78182255051151550                1     4871458           0       11110           0
<weights>
-.13553E+02
</weights>
</event>
<event>
     15  10001  1.35503E+01  6.88264E+01 -1.00000E+00  3.41099E-01
      21    -1     0     0   502   512  0.000000000E+00  0.000000000E+00  1.325442350E+02  1.325442350E+02  0.000000000E+00  0.00000E+00  9.000E+00
      21    -1     0     0   507   502  0.000000000E+00  0.000000000E+00 -5.331924631E+02  5.331924631E+02  0.000000000E+00  0.00000E+00  9.000E+00
      -6     2     1     2     0   501 -3.797605647E+01 -1.210556052E+02 -6.284731413E+01  2.247305007E+02  1.745204075E+02  0.00000E+00  9.000E+00
       6     2     1     2   507     0 -3.065978690E+01  1.159375773E+02 -2.239433841E+02  3.079625567E+02  1.740940916E+02  0.00000E+00  9.000E+00
     -24     2     3     3     0     0  4.193132727E+01 -9.226541873E+01 -2.508217802E+01  1.310140117E+02  7.914803791E+01  0.00000E+00  9.000E+00
      24     2     4     4     0     0  2.151461309E+01  1.264587400E+02 -1.473222797E+02  2.112165837E+02  8.033616641E+01  0.00000E+00  9.000E+00
     -11     1     6     6     0     0 -3.039966576E+00  1.849663962E+01 -7.882255334E+01  8.102075037E+01  0.000000000E+00  0.00000E+00  9.000E+00
      12     1     6     6     0     0  2.455457967E+01  1.079621004E+02 -6.849972631E+01  1.301958333E+02  5.878843310E-06  0.00000E+00  9.000E+00
      13     1     5     5     0     0  8.113046144E+00  2.392988722E+00 -2.921111684E+01  3.041113710E+01  0.000000000E+00  0.00000E+00  9.000E+00
     -14     1     5     5     0     0  3.381828112E+01 -9.465840746E+01  4.128938824E+00  1.006028746E+02  4.211733538E-06  0.00000E+00  9.000E+00
       5     1     4     4   511     0 -1.129727973E+01  4.464410422E+00 -7.470015912E+00  1.503073941E+01  4.750000000E+00  0.00000E+00  9.000E+00
      -5     1     3     3     0   514 -7.804375485E+01 -2.971468881E+01 -3.730372666E+01  9.158559343E+01  4.750000000E+00  0.00000E+00  9.000E+00
      21     1     1     2   501   512  6.863584336E+01  5.118027874E+00 -1.138575298E+02  1.330436406E+02  1.348699152E-06  0.00000E+00  9.000E+00
      21     1     4     4   507   511 -4.087712026E+01 -1.498557318E+01 -6.915108852E+01  8.171523364E+01  2.336015456E-06  0.00000E+00  9.000E+00
      21     1     3     3   514   501 -1.863628890E+00  9.245023826E-01 -4.614094532E-01  2.130895581E+00  8.093402156E-08  0.00000E+00  9.000E+00
#rwgt            1          17   24.053177517248010                1     4874680           0       11011           0
<weights>
0.13209E+02
</weights>
</event>
<event>
     15  10001  1.35503E+01  1.98331E+01 -1.00000E+00  1.88047E-01
      21    -1     0     0   511   501  0.000000000E+00  0.000000000E+00  7.372295469E+02  7.372295469E+02  0.000000000E+00  0.00000E+00  9.000E+00
      21    -1     0     0   507   502  0.000000000E+00  0.000000000E+00 -3.713875291E+02  3.713875291E+02  0.000000000E+00  0.00000E+00  9.000E+00
      -6     2     1     2     0   501 -3.497911918E+02  3.080603187E+02  3.137077942E+02  5.875559984E+02  1.719140288E+02  0.00000E+00  9.000E+00
       6     2     1     2   507     0  3.376796214E+02 -3.237657746E+02  5.380141047E+01  5.011580377E+02  1.715021385E+02  0.00000E+00  9.000E+00
     -24     2     3     3     0     0 -1.727205400E+02  8.387744419E+01  1.289739813E+02  2.458855272E+02  8.341219381E+01  0.00000E+00  9.000E+00
      24     2     4     4     0     0  2.108895087E+02 -1.701126563E+02 -2.827493948E+01  2.841926120E+02  8.095225636E+01  0.00000E+00  9.000E+00
     -11     1     6     6     0     0  2.186821981E+01 -3.375752996E+01  2.187865848E+01  4.578717685E+01  0.000000000E+00  0.00000E+00  9.000E+00
      12     1     6     6     0     0  1.890212889E+02 -1.363551263E+02 -5.015359796E+01  2.384054352E+02  1.093611235E-05  0.00000E+00  9.000E+00
      13     1     5     5     0     0 -1.765514485E+02  9.118298728E+01  1.301734353E+02  2.375497303E+02  0.000000000E+00  0.00000E+00  9.000E+00
     -14     1     5     5     0     0  3.830908502E+00 -7.305543096E+00 -1.199453995E+00  8.335796888E+00  1.313417122E-06  0.00000E+00  9.000E+00
       5     1     4     4   512     0  8.361279027E+01 -1.080701750E+02  6.765184155E+01  1.525437498E+02  4.750000000E+00  0.00000E+00  9.000E+00
      -5     1     3     3     0   513 -1.729111419E+02  2.138743319E+02  1.830947817E+02  3.304341908E+02  4.750000000E+00  0.00000E+00  9.000E+00
      21     1     1     2   511   502  1.211157046E+01  1.570545586E+01 -1.667186819E+00  1.990303983E+01  7.444617746E-07  0.00000E+00  9.000E+00
      21     1     4     4   507   512  4.317732238E+01 -4.558294332E+01  1.442450840E+01  6.442167595E+01  1.507891493E-06  0.00000E+00  9.000E+00
      21     1     3     3   513   501 -4.159509981E+00  1.030854264E+01  1.639031178E+00  1.123628042E+01  2.866295585E-07  0.00000E+00  9.000E+00
#rwgt            1          17   3.9924813035609401                1     4878707           0       11011           0
<weights>
0.25035E+02
</weights>
</event>
<event>
     15  10001  1.35503E+01  6.31578E+01 -1.00000E+00  3.05142E-01
      21    -1     0     0   512   501  0.000000000E+00  0.000000000E+00  1.189895136E+03  1.189895136E+03  0.000000000E+00  0.00000E+00  9.000E+00
      21    -1     0     0   501   502  0.000000000E+00  0.000000000E+00 -1.493792398E+02  1.493792398E+02  0.000000000E+00  0.00000E+00  9.000E+00
      -6     2     1     2     0   502 -8.247014410E+01 -2.297857360E+02  4.413128390E+02  5.331168613E+02  1.727823972E+02  0.00000E+00  9.000E+00
       6     2     1     2   507     0  1.319453368E+02  1.905287445E+02  1.042618528E+02  3.072029054E+02  1.726045098E+02  0.00000E+00  9.000E+00
     -24     2     3     3     0     0  7.094433193E+00 -8.659682010E+01  1.150046733E+02  1.654681516E+02  8.126680793E+01  0.00000E+00  9.000E+00
      24     2     4     4     0     0  1.504347724E+02  2.016741471E+02  9.931069110E+01  2.824297765E+02  8.124581779E+01  0.00000E+00  9.000E+00
     -11     1     6     6     0     0  6.185052026E+01  8.248107327E+01  8.428768419E+01  1.331654160E+02  0.000000000E+00  0.00000E+00  9.000E+00
      12     1     6     6     0     0  8.858425216E+01  1.191930738E+02  1.502300691E+01  1.492643605E+02  1.760104067E-06  0.00000E+00  9.000E+00
      13     1     5     5     0     0  1.022924233E+01 -8.129287499E+01  1.274883819E+02  1.515468787E+02  0.000000000E+00  0.00000E+00  9.000E+00
     -14     1     5     5     0     0 -3.134809137E+00 -5.303945116E+00 -1.248370852E+01  1.392127295E+01  1.450243599E-06  0.00000E+00  9.000E+00
       5     1     4     4   511     0 -1.064981314E+01 -5.104444444E+00 -1.709241605E+00  1.284359295E+01  4.750000000E+00  0.00000E+00  9.000E+00
      -5     1     3     3     0   514 -8.672709448E+01 -1.334279567E+02  3.073173412E+02  3.461085368E+02  4.750000000E+00  0.00000E+00  9.000E+00
      21     1     1     2   512   507 -4.947519265E+01  3.925699157E+01  4.949412041E+02  4.989546087E+02  0.000000000E+00  0.00000E+00  9.000E+00
      21     1     4     4   507   511 -7.839622520E+00 -6.040958192E+00  6.660403266E+00  1.192953598E+01  3.475518164E-07  0.00000E+00  9.000E+00
      21     1     3     3   514   502 -2.837482819E+00 -9.760959256E+00  1.899082447E+01  2.154017290E+01  0.000000000E+00  0.00000E+00  9.000E+00
#rwgt            1          17   27.419950579333744                1     4886611           0       11011           0
<weights>
0.12891E+02
</weights>
</event>
<event>
     15  10001 -1.35503E+01  1.67748E+01 -1.00000E+00  2.94906E-01
      21    -1     0     0   511   501  0.000000000E+00  0.000000000E+00  3.866650150E+01  3.866650150E+01  0.000000000E+00  0.00000E+00  9.000E+00
      21    -1     0     0   507   502  0.000000000E+00  0.000000000E+00 -1.151495322E+03  1.151495322E+03  0.000000000E+00  0.00000E+00  9.000E+00
      -6     2     1     2     0   501  3.217709726E+01 -1.906892120E+01 -3.108504650E+02  3.573165537E+02  1.721862905E+02  0.00000E+00  9.000E+00
       6     2     1     2   507     0 -2.926707703E+01  2.548425323E+00 -5.127323470E+02  5.431132411E+02  1.766761918E+02  0.00000E+00  9.000E+00
     -24     2     3     3     0     0  6.875594555E+00  2.411756577E+01 -2.899851192E+02  3.019338541E+02  8.027298491E+01  0.00000E+00  9.000E+00
      24     2     4     4     0     0 -2.127575068E+01  2.381959976E+01 -1.093988980E+02  1.387235875E+02  7.909541050E+01  0.00000E+00  9.000E+00
     -11     1     6     6     0     0 -3.920221557E+01 -1.514428222E+01 -4.756961082E+01  6.347464741E+01  0.000000000E+00  0.00000E+00  9.000E+00
      12     1     6     6     0     0  1.792646489E+01  3.896388197E+01 -6.182928716E+01  7.524894014E+01  1.168007728E-06  0.00000E+00  9.000E+00
      13     1     5     5     0     0 -1.848922290E+00 -2.479185418E+01 -4.027918278E+01  4.733357279E+01  0.000000000E+00  0.00000E+00  9.000E+00
     -14     1     5     5     0     0  8.724516845E+00  4.890941995E+01 -2.497059365E+02  2.546002813E+02  3.814697266E-06  0.00000E+00  9.000E+00
       5     1     4     4   512     0  1.090619273E+00 -1.856728341E+01 -2.311858510E+02  2.319814511E+02  4.750000000E+00  0.00000E+00  9.000E+00
      -5     1     3     3     0   513  2.604419354E+01 -3.985719611E+01 -2.002467219E+01  5.186951026E+01  4.750000000E+00  0.00000E+00  9.000E+00
      21     1     1     2   511   502 -2.910020238E+00  1.652049587E+01 -2.892460085E+02  2.897320287E+02  5.394796609E-06  0.00000E+00  9.000E+00
      21     1     4     4   507   512 -9.081945618E+00 -2.703891020E+00 -1.721475980E+02  1.724082024E+02  3.814697266E-06  0.00000E+00  9.000E+00
      21     1     3     3   513   501 -7.426908277E-01 -3.329290867E+00 -8.406735706E-01  3.513189348E+00  1.618680431E-07  0.00000E+00  9.000E+00
#rwgt            1          17  -17.594802350276488                1     4895564           0       11011           0
<weights>
-.18162E+02
</weights>
</event>
<event>
     15  10001  1.35503E+01  3.76653E+01 -1.00000E+00  4.52011E-01
      -2    -1     0     0     0   512  0.000000000E+00  0.000000000E+00  4.073211344E+01  4.073211344E+01  0.000000000E+00  0.00000E+00  9.000E+00
       2    -1     0     0   507     0  0.000000000E+00  0.000000000E+00 -2.264361339E+03  2.264361339E+03  0.000000000E+00  0.00000E+00  9.000E+00
      -6     2     1     2     0   501 -6.804706622E+01 -1.376298492E+02 -1.148949284E+03  1.172014211E+03  1.730909495E+02  0.00000E+00  9.000E+00
       6     2     1     2   507     0  1.053101857E+02  1.321402840E+02 -1.067973539E+03  1.094821546E+03  1.718006022E+02  0.00000E+00  9.000E+00
     -24     2     3     3     0     0 -3.565847261E+00 -7.520831123E+01 -3.515788636E+02  3.695829420E+02  8.552688665E+01  0.00000E+00  9.000E+00
      24     2     4     4     0     0  1.133176502E+02  6.541225644E+01 -4.913929820E+02  5.141137466E+02  7.567184785E+01  0.00000E+00  9.000E+00
     -11     1     6     6     0     0  5.784728885E+01  3.446164580E+01 -1.224483026E+02  1.397408339E+02  0.000000000E+00  0.00000E+00  9.000E+00
      12     1     6     6     0     0  5.547036132E+01  3.095061064E+01 -3.689446794E+02  3.743729127E+02  5.394796609E-06  0.00000E+00  9.000E+00
      13     1     5     5     0     0 -3.503542946E+01 -7.098082114E+01 -2.855154688E+02  2.962850675E+02  0.000000000E+00  0.00000E+00  9.000E+00
     -14     1     5     5     0     0  3.146958220E+01 -4.227490094E+00 -6.606339477E+01  7.329787449E+01  2.861022949E-06  0.00000E+00  9.000E+00
       5     1     4     4   511     0 -3.475932121E+00  1.197216291E+01 -1.526059010E+02  1.531879183E+02  4.750000000E+00  0.00000E+00  9.000E+00
      -5     1     3     3     0   514 -5.704594299E+01 -5.555471005E+01 -7.183005760E+02  7.227162966E+02  4.750000000E+00  0.00000E+00  9.000E+00
      21     1     1     2   501   512 -3.726311952E+01  5.489565251E+00 -6.706402730E+00  3.825769518E+01  2.188391656E-06  0.00000E+00  9.000E+00
      21     1     4     4   507   511 -4.531532313E+00  5.475586463E+01 -4.239746561E+02  4.275198808E+02  7.629394531E-06  0.00000E+00  9.000E+00
      21     1     3     3   514   501 -7.435275966E+00 -6.866827952E+00 -7.906984408E+01  7.971497286E+01  1.348699152E-06  0.00000E+00  9.000E+00
#rwgt            1           6   5.8988396569353325                1     4902464           0       11011           0
<weights>
0.13264E+02
</weights>
</event>
<event>
     15  10001  1.35503E+01  1.16918E+02 -1.00000E+00  2.47501E-01
       3    -1     0     0   507     0  0.000000000E+00  0.000000000E+00  1.015010503E+03  1.015010503E+03  0.000000000E+00  0.00000E+00  9.000E+00
      21    -1     0     0   501   502  0.000000000E+00  0.000000000E+00 -1.461573260E+02  1.461573260E+02  0.000000000E+00  0.00000E+00  9.000E+00
      -6     2     1     2     0   502 -5.730659248E+01 -7.877716281E+01 -7.087723396E+00  1.595510905E+02  1.261603256E+02  0.00000E+00  9.000E+00
       6     2     1     2   507     0  1.156028486E+02  1.801249021E+02  2.735283695E+02  3.879631920E+02  1.728834014E+02  0.00000E+00  9.000E+00
     -24     2     3     3     0     0 -5.266112788E+01 -9.456865517E+01 -1.984931569E+01  1.363976128E+02  8.058466672E+01  0.00000E+00  9.000E+00
      24     2     4     4     0     0  1.216511090E+01  2.089246870E+01  8.688993387E+01  1.215208528E+02  8.144305923E+01  0.00000E+00  9.000E+00
     -11     1     6     6     0     0  3.876099560E+01  3.172515451E+01  7.554904246E+01  9.064523167E+01  0.000000000E+00  0.00000E+00  9.000E+00
      12     1     6     6     0     0 -2.659588470E+01 -1.083268581E+01  1.134089141E+01  3.087562117E+01  8.085167388E-07  0.00000E+00  9.000E+00
      13     1     5     5     0     0 -1.595405671E+01  1.288836816E+01  2.513276733E+00  2.066297460E+01  0.000000000E+00  0.00000E+00  9.000E+00
     -14     1     5     5     0     0 -3.670707118E+01 -1.074570233E+02 -2.236259242E+01  1.157346382E+02  4.473129043E-06  0.00000E+00  9.000E+00
       5     1     4     4   511     0  1.027895689E+02  1.562412297E+02  1.832956725E+02  2.619100674E+02  4.750000000E+00  0.00000E+00  9.000E+00
      -5     1     3     3     0   512 -2.097408898E+00  1.124800271E+01  1.297536741E+01  1.793988151E+01  4.750000000E+00  0.00000E+00  9.000E+00
       3     1     1     2   501     0 -5.829625612E+01 -1.013477393E+02  6.024125312E+02  6.136535468E+02  0.000000000E+00  0.00000E+00  9.000E+00
      21     1     3     3   512   502 -2.548055699E+00  4.543489652E+00 -2.137751244E-01  5.213596251E+00  7.170579044E-08  0.00000E+00  9.000E+00
      21     1     4     4   507   511  6.481687526E-01  2.991203615E+00  3.342763108E+00  4.532271726E+00  7.300048300E-08  0.00000E+00  9.000E+00
#rwgt            1          17   13.626993528695930                1     4903229           0       11110           0
<weights>
0.18584E+02
</weights>
</event>
<event>
     15  10001  1.35503E+01  3.26547E+01 -1.00000E+00  3.22975E-01
      21    -1     0     0   511   501  0.000000000E+00  0.000000000E+00  5.738577355E+01  5.738577355E+01  0.000000000E+00  0.00000E+00  9.000E+00
      21    -1     0     0   501   502  0.000000000E+00  0.000000000E+00 -8.977626570E+02  8.977626570E+02  0.000000000E+00  0.00000E+00  9.000E+00
      -6     2     1     2     0   502 -6.999835416E+01  2.769619421E+01 -2.164579135E+02  2.890383683E+02  1.761314886E+02  0.00000E+00  9.000E+00
       6     2     1     2   507     0  4.071945456E+01 -1.323678748E+01 -3.787697890E+02  4.187955877E+02  1.734644190E+02  0.00000E+00  9.000E+00
     -24     2     3     3     0     0 -2.240586583E+01 -5.205538629E+01 -1.266020128E+02  1.595921130E+02  7.892899852E+01  0.00000E+00  9.000E+00
      24     2     4     4     0     0  7.008661690E+01 -5.874436164E+01 -2.293776127E+02  2.597443603E+02  8.056059612E+01  0.00000E+00  9.000E+00
     -11     1     6     6     0     0  5.560463427E+01 -4.194434892E+01 -2.269903134E+02  2.374358990E+02  0.000000000E+00  0.00000E+00  9.000E+00
      12     1     6     6     0     0  1.448198263E+01 -1.680001271E+01 -2.387299224E+00  2.230846131E+01  1.180488009E-06  0.00000E+00  9.000E+00
      13     1     5     5     0     0  2.801692344E+01 -5.984292983E+00 -3.264989521E+01  4.343702820E+01  0.000000000E+00  0.00000E+00  9.000E+00
     -14     1     5     5     0     0 -5.042278927E+01 -4.607109331E+01 -9.395211760E+01  1.161550848E+02  1.348699152E-06  0.00000E+00  9.000E+00
       5     1     4     4   513     0 -1.980453767E+01  3.325075648E+01 -1.038534270E+02  1.109320933E+02  4.750000000E+00  0.00000E+00  9.000E+00
      -5     1     3     3     0   512 -4.095397811E+01  6.712975857E+01 -7.344971595E+01  1.077081988E+02  4.750000000E+00  0.00000E+00  9.000E+00
      21     1     1     2   511   507  2.927889960E+01 -1.445940673E+01 -2.451491809E+02  2.473144745E+02  3.814697266E-06  0.00000E+00  9.000E+00
      21     1     4     4   507   513 -9.562624672E+00  1.225681768E+01 -4.553874940E+01  4.811913410E+01  9.536743164E-07  0.00000E+00  9.000E+00
      21     1     3     3   512   502 -6.638510225E+00  1.262182193E+01 -1.640618475E+01  2.173805660E+01  5.331201500E-07  0.00000E+00  9.000E+00
#rwgt            1          17   41.927420258003210                1     4916593           0       11011           0
<weights>
0.13416E+02
</weights>
</event>
<event>
     15  10001 -1.35503E+01  2.30333E+01 -1.00000E+00  3.44955E-01
      21    -1     0     0   512   501  0.000000000E+00  0.000000000E+00  2.153084184E+02  2.153084184E+02  0.000000000E+00  0.00000E+00  9.000E+00
      21    -1     0     0   501   502  0.000000000E+00  0.000000000E+00 -4.858337868E+02  4.858337868E+02  0.000000000E+00  0.00000E+00  9.000E+00
      -6     2     1     2     0   502 -1.227130796E+02 -1.134271258E+02 -3.401089329E+02  4.162189045E+02  1.721623577E+02  0.00000E+00  9.000E+00
       6     2     1     2   507     0  1.150415145E+02  1.351452789E+02  7.817534701E+01  2.603397736E+02  1.736853948E+02  0.00000E+00  9.000E+00
     -24     2     3     3     0     0 -7.604098843E+01 -1.146741861E+02 -1.444975541E+02  2.146498163E+02  7.913658833E+01  0.00000E+00  9.000E+00
      24     2     4     4     0     0  1.316130140E+02  9.919161548E+01  1.264867438E+01  1.829583207E+02  7.843976090E+01  0.00000E+00  9.000E+00
     -11     1     6     6     0     0  8.013648205E+01  3.968545121E+01  4.223625245E+01  9.889738022E+01  0.000000000E+00  0.00000E+00  9.000E+00
      12     1     6     6     0     0  5.147653198E+01  5.950616427E+01 -2.958757807E+01  8.406094044E+01  7.539457465E-07  0.00000E+00  9.000E+00
      13     1     5     5     0     0 -2.331676790E+01 -2.658341702E+01 -9.361094633E+01  1.000667727E+02  0.000000000E+00  0.00000E+00  9.000E+00
     -14     1     5     5     0     0 -5.272422052E+01 -8.809076908E+01 -5.088660775E+01  1.145830436E+02  2.431401974E-06  0.00000E+00  9.000E+00
       5     1     4     4   511     0 -1.714834715E+01  3.035202029E+01  5.957057992E+01  6.918473414E+01  4.750000000E+00  0.00000E+00  9.000E+00
      -5     1     3     3     0   513 -4.346447623E+01  1.638126317E+00 -1.909401084E+02  1.958890799E+02  4.750000000E+00  0.00000E+00  9.000E+00
      21     1     1     2   512   507  7.671565085E+00 -2.171815302E+01 -8.591782411E+00  2.458352714E+01  4.460403188E-07  0.00000E+00  9.000E+00
      21     1     4     4   507   511  5.768476353E-01  5.601643099E+00  5.956092711E+00  8.196718794E+00  1.192092896E-07  0.00000E+00  9.000E+00
      21     1     3     3   513   502 -3.207614937E+00 -3.910660581E-01 -4.671270494E+00  5.680008299E+00  8.429369702E-08  0.00000E+00  9.000E+00
#rwgt            1          17  -24.028393250770300                1     4925621           0       11011           0
<weights>
-.27252E+02
</weights>
</event>
<event>
     14  10001  1.35503E+01  1.25847E+01 -1.00000E+00  2.73986E-01
      21    -1     0     0   507   511  0.000000000E+00  0.000000000E+00  3.383345901E+02  3.383345901E+02  0.000000000E+00  0.00000E+00  9.000E+00
      21    -1     0     0   501   502  0.000000000E+00  0.000000000E+00 -3.064777210E+02  3.064777210E+02  0.000000000E+00  0.00000E+00  9.000E+00
      -6     2     1     2     0   502 -2.795459947E+01  7.633762750E+01 -2.125784716E+02  2.857409643E+02  1.727697864E+02  0.00000E+00  9.000E+00
       6     2     1     2   507     0  1.956032623E+01 -8.571375720E+01  1.083557513E+02  2.224110736E+02  1.731942906E+02  0.00000E+00  9.000E+00
     -24     2     3     3     0     0 -7.127340611E+01  8.997239522E+01 -1.315091577E+02  1.921529976E+02  8.033172227E+01  0.00000E+00  9.000E+00
      24     2     4     4     0     0  5.308011586E+01 -2.299868777E+01  1.143569031E+02  1.508895205E+02  7.964739664E+01  0.00000E+00  9.000E+00
     -11     1     6     6     0     0  2.380886935E+01  2.737805624E+01  2.443983129E+01  4.374614927E+01  0.000000000E+00  0.00000E+00  9.000E+00
      12     1     6     6     0     0  2.927124651E+01 -5.037674400E+01  8.991707178E+01  1.071433713E+02  2.861022949E-06  0.00000E+00  9.000E+00
      13     1     5     5     0     0 -3.973037800E+01  1.909764369E+01 -9.836752255E+01  1.077932856E+02  0.000000000E+00  0.00000E+00  9.000E+00
     -14     1     5     5     0     0 -3.154302811E+01  7.087475152E+01 -3.314163518E+01  8.435971200E+01  2.286830675E-06  0.00000E+00  9.000E+00
       5     1     4     4   507     0 -3.351978963E+01 -6.271506943E+01 -6.001151780E+00  7.152155307E+01  4.750000000E+00  0.00000E+00  9.000E+00
      -5     1     3     3     0   512  4.069300301E+01 -1.011941704E+01 -7.083821086E+01  8.245567120E+01  4.750000000E+00  0.00000E+00  9.000E+00
      21     1     1     2   501   511  8.394273243E+00  9.376129698E+00  1.360795894E+02  1.366602732E+02  2.697398305E-06  0.00000E+00  9.000E+00
      21     1     3     3   512   502  2.625803621E+00 -3.515350673E+00 -1.023110299E+01  1.113229551E+01  0.000000000E+00  0.00000E+00  9.000E+00
#rwgt            1          17   18.569599937342190                1     4936073           0         111           0
<weights>
0.14382E+02
</weights>
</event>
<event>
     14  10001 -1.35503E+01  1.51479E+01 -1.00000E+00  7.51683E-01
      21    -1     0     0   512   501  0.000000000E+00  0.000000000E+00  2.580189814E+02  2.580189814E+02  0.000000000E+00  0.00000E+00  9.000E+00
      21    -1     0     0   501   502  0.000000000E+00  0.000000000E+00 -2.710469769E+02  2.710469769E+02  0.000000000E+00  0.00000E+00  9.000E+00
      -6     2     1     2     0   502 -8.777646714E+01  1.356062538E+02 -6.483428266E+01  2.444078104E+02  1.715748505E+02  0.00000E+00  9.000E+00
       6     2     1     2   507     0  7.560385963E+01 -1.446221050E+02  8.154314141E+01  2.512854277E+02  1.728108371E+02  0.00000E+00  9.000E+00
     -24     2     3     3     0     0 -1.414526789E+01  8.677565961E+01 -9.352028547E+01  1.513947485E+02  8.027591400E+01  0.00000E+00  9.000E+00
      24     2     4     4     0     0  5.748167286E+01 -6.933164997E+01  1.139410561E+02  1.660893084E+02  8.057340561E+01  0.00000E+00  9.000E+00
     -11     1     6     6     0     0  3.779615149E+01  2.649343967E+00  1.198096288E+01  3.973803672E+01  0.000000000E+00  0.00000E+00  9.000E+00
      12     1     6     6     0     0  1.968552137E+01 -7.198099393E+01  1.019600933E+02  1.263512717E+02  1.348699152E-06  0.00000E+00  9.000E+00
      13     1     5     5     0     0 -5.298998519E+00  9.816475202E+01 -6.067815622E+01  1.155259130E+02  0.000000000E+00  0.00000E+00  9.000E+00
     -14     1     5     5     0     0 -8.846269374E+00 -1.138909241E+01 -3.284212925E+01  3.586883552E+01  0.000000000E+00  0.00000E+00  9.000E+00
       5     1     4     4   511     0  1.982924615E+01 -6.854118297E+01 -3.162763202E+01  7.819183060E+01  4.750000000E+00  0.00000E+00  9.000E+00
      -5     1     3     3     0   502 -7.363119925E+01  4.883059416E+01  2.868600281E+01  9.301306191E+01  4.750000000E+00  0.00000E+00  9.000E+00
      21     1     1     2   512   507  1.217260751E+01  9.015851204E+00 -2.973685429E+01  3.337272014E+01  7.539457465E-07  0.00000E+00  9.000E+00
      21     1     4     4   507   511 -1.707059381E+00 -6.749272038E+00 -7.702826914E-01  7.004288700E+00  8.161702119E-08  0.00000E+00  9.000E+00
#rwgt            1          17  -23.091561555505372                1     4948043           0         110           0
<weights>
-.13799E+02
</weights>
</event>
<event>
     15  10001  1.35503E+01  5.81209E+01 -1.00000E+00  3.88753E-01
      21    -1     0     0   511   501  0.000000000E+00  0.000000000E+00  2.675739409E+02  2.675739409E+02  0.000000000E+00  0.00000E+00  9.000E+00
      21    -1     0     0   501   502  0.000000000E+00  0.000000000E+00 -3.762253913E+02  3.762253913E+02  0.000000000E+00  0.00000E+00  9.000E+00
      -6     2     1     2     0   502  7.987731203E+01 -1.781591975E+02  1.128936329E+02  2.839922187E+02  1.725848292E+02  0.00000E+00  9.000E+00
       6     2     1     2   507     0 -7.814906767E+01  1.200640310E+02 -1.496541195E+02  2.673606648E+02  1.690050925E+02  0.00000E+00  9.000E+00
     -24     2     3     3     0     0  2.937947130E+01 -1.457016715E+02  1.372150173E+02  2.188011186E+02  8.338967629E+01  0.00000E+00  9.000E+00
      24     2     4     4     0     0 -3.548018834E+01  9.939390508E+01 -1.632323519E+02  2.099677952E+02  7.939573140E+01  0.00000E+00  9.000E+00
     -11     1     6     6     0     0 -3.397429316E+01  2.573544844E+01 -1.130751310E+02  1.208410160E+02  0.000000000E+00  0.00000E+00  9.000E+00
      12     1     6     6     0     0 -1.505895175E+00  7.365845664E+01 -5.015722098E+01  8.912677920E+01  1.784161275E-06  0.00000E+00  9.000E+00
      13     1     5     5     0     0  3.292111722E+01 -8.054200990E+01  2.769083376E+01  9.131044624E+01  0.000000000E+00  0.00000E+00  9.000E+00
     -14     1     5     5     0     0 -3.541645923E+00 -6.515966157E+01  1.095241835E+02  1.274906723E+02  3.568322551E-06  0.00000E+00  9.000E+00
       5     1     4     4   512     0 -2.597481144E+01  2.713403889E+01  9.252255865E+00  3.897580833E+01  4.750000000E+00  0.00000E+00  9.000E+00
      -5     1     3     3     0   514  4.733719975E+01 -2.906967325E+01 -2.143153217E+01  5.973047341E+01  4.750000000E+00  0.00000E+00  9.000E+00
      21     1     1     2   511   507 -1.728244359E+00  5.809516656E+01 -7.189096385E+01  9.244644876E+01  9.536743164E-07  0.00000E+00  9.000E+00
      21     1     4     4   507   512 -1.669406789E+01 -6.463913001E+00  4.325976584E+00  1.841706131E+01  8.280541891E-07  0.00000E+00  9.000E+00
      21     1     3     3   514   502  3.160640982E+00 -3.387852804E+00 -2.889852200E+00  5.460626684E+00  8.429369702E-08  0.00000E+00  9.000E+00
#rwgt            1          17   14.019600820334274                1     4960996           0       11011           0
<weights>
0.25438E+02
</weights>
</event>
<event>
     15  10001  1.35503E+01  1.86338E+01 -1.00000E+00  5.11722E-01
      21    -1     0     0   512   501  0.000000000E+00  0.000000000E+00  4.923845840E+01  4.923845840E+01  0.000000000E+00  0.00000E+00  9.000E+00
      21    -1     0     0   507   502  0.000000000E+00  0.000000000E+00 -9.606051122E+02  9.606051122E+02  0.000000000E+00  0.00000E+00  9.000E+00
      -6     2     1     2     0   501 -6.337026907E+01  1.658396079E+00 -2.171664913E+02  2.844045735E+02  1.723546785E+02  0.00000E+00  9.000E+00
       6     2     1     2   507     0  7.996856629E+01 -1.012682500E+01 -6.457038247E+02  6.734860132E+02  1.736446271E+02  0.00000E+00  9.000E+00
     -24     2     3     3     0     0 -1.685343832E+01  1.657737720E+01 -2.184964135E+02  2.343389925E+02  8.133408204E+01  0.00000E+00  9.000E+00
      24     2     4     4     0     0  1.212636343E+02  9.445378712E+00 -5.061005804E+02  5.264539192E+02  7.887868729E+01  0.00000E+00  9.000E+00
     -11     1     6     6     0     0  3.533393916E+01 -2.195881099E+00 -3.102717551E+02  3.122849198E+02  0.000000000E+00  0.00000E+00  9.000E+00
      12     1     6     6     0     0  8.592969517E+01  1.164125981E+01 -1.958288253E+02  2.141689993E+02  5.394796609E-06  0.00000E+00  9.000E+00
      13     1     5     5     0     0  3.097804624E+01 -5.605095960E+00 -6.977466618E+01  7.654776606E+01  0.000000000E+00  0.00000E+00  9.000E+00
     -14     1     5     5     0     0 -4.783148456E+01  2.218247316E+01 -1.487217473E+02  1.577912265E+02  2.697398305E-06  0.00000E+00  9.000E+00
       5     1     4     4   513     0 -3.870348523E+01 -1.932888332E+01 -1.326837957E+02  1.396392411E+02  4.750000000E+00  0.00000E+00  9.000E+00
      -5     1     3     3     0   511 -4.608772568E+01 -1.582193670E+01  1.728291997E+00  4.898940327E+01  4.750000000E+00  0.00000E+00  9.000E+00
      21     1     1     2   512   502 -1.659829722E+01  8.468428918E+00 -4.849633774E+01  5.195298387E+01  6.743495762E-07  0.00000E+00  9.000E+00
      21     1     3     3   511   501 -4.291050723E-01  9.029555782E-01 -3.983698296E-01  1.076177709E+00  3.026440145E-08  0.00000E+00  9.000E+00
      21     1     4     4   507   513 -2.591582810E+00 -2.433203876E-01 -6.919448558E+00  7.392852942E+00  0.000000000E+00  0.00000E+00  9.000E+00
#rwgt            1          17   42.531653897756385                1     4965842           0       11110           0
<weights>
0.12658E+02
</weights>
</event>
<event>
     15  10001  1.35503E+01  2.41103E+01 -1.00000E+00  2.62991E-01
      21    -1     0     0   511   501  0.000000000E+00  0.000000000E+00  3.008001602E+02  3.008001602E+02  0.000000000E+00  0.00000E+00  9.000E+00
      21    -1     0     0   507   502  0.000000000E+00  0.000000000E+00 -2.216691535E+02  2.216691535E+02  0.000000000E+00  0.00000E+00  9.000E+00
      -6     2     1     2     0   501  7.538138295E+01 -1.362057552E+02  5.892341784E+01  2.398393605E+02  1.726748071E+02  0.00000E+00  9.000E+00
       6     2     1     2   507     0 -7.041277901E+01  1.126129399E+02  6.910044537E+01  2.281155571E+02  1.721110170E+02  0.00000E+00  9.000E+00
     -24     2     3     3     0     0  6.477854073E+01 -1.221125259E+02 -1.804015712E+01  1.603399616E+02  7.921949054E+01  0.00000E+00  9.000E+00
      24     2     4     4     0     0 -8.975978974E+01  9.916059493E+01  9.933586603E+01  1.852087646E+02  8.090135208E+01  0.00000E+00  9.000E+00
     -11     1     6     6     0     0  1.468549079E+01  1.409519265E+01  2.161994010E+01  2.969444234E+01  0.000000000E+00  0.00000E+00  9.000E+00
      12     1     6     6     0     0 -1.044452805E+02  8.506540228E+01  7.771592593E+01  1.555143223E+02  9.536743164E-07  0.00000E+00  9.000E+00
      13     1     5     5     0     0  3.014348299E+01  8.879162340E-02 -1.406370593E+01  3.326297153E+01  0.000000000E+00  0.00000E+00  9.000E+00
     -14     1     5     5     0     0  3.463505774E+01 -1.222013175E+02 -3.976451196E+00  1.270769900E+02  3.757929865E-06  0.00000E+00  9.000E+00
       5     1     4     4   512     0  1.867752651E+01  1.765077741E+01 -2.688774705E+01  3.749551148E+01  4.750000000E+00  0.00000E+00  9.000E+00
      -5     1     3     3     0   514  5.604271940E+00 -1.235067942E+01  6.143513486E+01  6.309346592E+01  4.750000000E+00  0.00000E+00  9.000E+00
      21     1     1     2   511   502 -4.968603942E+00  2.359281532E+01 -4.889285657E+01  5.451439611E+01  9.536743164E-07  0.00000E+00  9.000E+00
      21     1     4     4   507   512  6.694842162E-01 -4.198432426E+00 -3.347673607E+00  5.411281043E+00  5.960464478E-08  0.00000E+00  9.000E+00
      21     1     3     3   514   501  4.998570281E+00 -1.742549899E+00  1.552844010E+01  1.640593298E+01  2.384185791E-07  0.00000E+00  9.000E+00
#rwgt            1          17   24.408910846957884                1     4978757           0       11011           0
<weights>
0.12065E+02
</weights>
</event>
<event>
     13  10001  1.35503E+01  1.53091E+02 -1.00000E+00  1.16044E-01
      21    -1     0     0   507   512  0.000000000E+00  0.000000000E+00  1.514709366E+03  1.514709366E+03  0.000000000E+00  0.00000E+00  9.000E+00
      21    -1     0     0   501   502  0.000000000E+00  0.000000000E+00 -6.370604906E+02  6.370604906E+02  0.000000000E+00  0.00000E+00  9.000E+00
      -6     2     1     2     0   502 -1.279213781E+02 -3.423279827E+02 -4.440843863E+02  6.005846897E+02  1.730280343E+02  0.00000E+00  9.000E+00
       6     2     1     2   507     0  2.263537486E+02  4.595796877E+02  5.762006112E+02  7.900965867E+02  1.726150722E+02  0.00000E+00  9.000E+00
     -24     2     3     3     0     0 -5.499598645E+01 -1.062277058E+02 -9.391063906E+01  1.719756962E+02  8.029662492E+01  0.00000E+00  9.000E+00
      24     2     4     4     0     0  9.738426077E+01  2.891094899E+02  3.269322864E+02  4.616906224E+02  1.149152713E+02  0.00000E+00  9.000E+00
     -11     1     6     6     0     0  1.327387519E+01  1.276423089E+02  2.074143114E+02  2.439045947E+02  0.000000000E+00  0.00000E+00  9.000E+00
      12     1     6     6     0     0  8.411038559E+01  1.614671810E+02  1.195179751E+02  2.177860277E+02  1.907348633E-06  0.00000E+00  9.000E+00
      13     1     5     5     0     0 -1.426288624E+01 -9.774012361E+01 -8.285375117E+01  1.289236432E+02  0.000000000E+00  0.00000E+00  9.000E+00
     -14     1     5     5     0     0 -4.073310021E+01 -8.487582142E+00 -1.105688789E+01  4.305205306E+01  1.400392070E-06  0.00000E+00  9.000E+00
       5     1     4     4   507     0  1.289694878E+02  1.704701978E+02  2.492683248E+02  3.284059643E+02  4.750000000E+00  0.00000E+00  9.000E+00
      -5     1     3     3     0   502 -7.292539160E+01 -2.361002769E+02 -3.501737472E+02  4.286089934E+02  4.750000000E+00  0.00000E+00  9.000E+00
      21     1     1     2   501   512 -9.843237055E+01 -1.172517050E+02  7.455326504E+02  7.610885800E+02  1.078959322E-05  0.00000E+00  9.000E+00
#rwgt            2         113   2.8765418221306613                1     4992135           0           1           0
<weights>
0.13550E+02
</weights>
</event>
<event>
     15  10001 -1.35503E+01  2.84747E+01 -1.00000E+00  1.93465E-01
      21    -1     0     0   507   501  0.000000000E+00  0.000000000E+00  5.840840519E+02  5.840840519E+02  0.000000000E+00  0.00000E+00  9.000E+00
       2    -1     0     0   501     0  0.000000000E+00  0.000000000E+00 -4.568799110E+02  4.568799110E+02  0.000000000E+00  0.00000E+00  9.000E+00
      -6     2     1     2     0   502  5.319482192E+01  1.483470405E+02  3.571532898E+01  2.436773687E+02  1.823911779E+02  0.00000E+00  9.000E+00
       6     2     1     2   507     0 -5.784133290E+01 -1.764400422E+02  4.073518626E+02  4.801426622E+02  1.735647656E+02  0.00000E+00  9.000E+00
     -24     2     3     3     0     0 -2.829545333E+01  5.638490165E+01 -2.468343093E+01  1.049570560E+02  8.016746241E+01  0.00000E+00  9.000E+00
      24     2     4     4     0     0 -5.758590468E+01 -1.760844082E+02  4.108601186E+02  4.579675069E+02  8.127942641E+01  0.00000E+00  9.000E+00
     -11     1     6     6     0     0 -1.186285175E+01 -1.482770714E+02  2.980280493E+02  3.330878793E+02  0.000000000E+00  0.00000E+00  9.000E+00
      12     1     6     6     0     0 -4.572305293E+01 -2.780733680E+01  1.128320693E+02  1.248796277E+02  2.697398305E-06  0.00000E+00  9.000E+00
      13     1     5     5     0     0 -4.784102032E+01  7.725969717E+00 -4.135112250E+00  4.863695083E+01  0.000000000E+00  0.00000E+00  9.000E+00
     -14     1     5     5     0     0  1.954556699E+01  4.865893193E+01 -2.054831868E+01  5.632010517E+01  1.390207266E-06  0.00000E+00  9.000E+00
       5     1     4     4   511     0  6.681932916E+00 -7.799778161E+00 -3.962302916E+00  1.198945834E+01  4.750000000E+00  0.00000E+00  9.000E+00
      -5     1     3     3     0   512  7.045602069E+01  6.624948005E+01  4.881987055E+01  1.084388617E+02  4.750000000E+00  0.00000E+00  9.000E+00
       2     1     1     2   502     0  4.646510978E+00  2.809300163E+01 -3.158630507E+02  3.171439320E+02  0.000000000E+00  0.00000E+00  9.000E+00
      21     1     4     4   507   511 -6.937361128E+00  7.444144244E+00  4.540469464E-01  1.018569691E+01  5.046909128E-07  0.00000E+00  9.000E+00
      21     1     3     3   512   502  1.103425455E+01  2.571265884E+01  1.157888936E+01  3.028145103E+01  2.384185791E-07  0.00000E+00  9.000E+00
#rwgt            1          17  -7.9068586804988268                1     4998382           0       11011           0
<weights>
-.89694E+01
</weights>
</event>
<event>
     15  10001  1.35503E+01  2.14963E+01 -1.00000E+00  3.78532E-01
      21    -1     0     0   507   512  0.000000000E+00  0.000000000E+00  1.159566047E+03  1.159566047E+03  0.000000000E+00  0.00000E+00  9.000E+00
      21    -1     0     0   501   502  0.000000000E+00  0.000000000E+00 -6.817412102E+02  6.817412102E+02  0.000000000E+00  0.00000E+00  9.000E+00
      -6     2     1     2     0   502  3.339153057E+01 -2.855383914E+02 -3.031769709E+02  4.506715442E+02  1.689419955E+02  0.00000E+00  9.000E+00
       6     2     1     2   507     0 -1.770827999E+01  3.002396772E+02  1.058094284E+03  1.112710664E+03  1.676426566E+02  0.00000E+00  9.000E+00
     -24     2     3     3     0     0  5.988574663E+01 -1.637114641E+02 -2.485953310E+02  3.143260555E+02  8.132333279E+01  0.00000E+00  9.000E+00
      24     2     4     4     0     0 -6.401792694E+01  1.920891077E+02  7.487481788E+02  7.798073887E+02  8.049352765E+01  0.00000E+00  9.000E+00
     -11     1     6     6     0     0 -1.280494332E+01  8.594875335E+01  1.923883717E+02  2.111029141E+02  0.000000000E+00  0.00000E+00  9.000E+00
      12     1     6     6     0     0 -5.121298361E+01  1.061403544E+02  5.563598070E+02  5.687044746E+02  0.000000000E+00  0.00000E+00  9.000E+00
      13     1     5     5     0     0  3.335060440E+01 -3.146887836E+01 -2.254979688E+01  5.109839976E+01  0.000000000E+00  0.00000E+00  9.000E+00
     -14     1     5     5     0     0  2.653514223E+01 -1.322425857E+02 -2.260455342E+02  2.632276558E+02  6.607249480E-06  0.00000E+00  9.000E+00
       5     1     4     4   511     0  3.573437298E+01  1.050200630E+02  2.675192414E+02  2.896467954E+02  4.750000000E+00  0.00000E+00  9.000E+00
      -5     1     3     3     0   513 -2.530012833E+01 -1.098805868E+02 -4.784489642E+01  1.225786950E+02  4.750000000E+00  0.00000E+00  9.000E+00
      21     1     4     4   507   511  1.057527397E+01  3.130506460E+00  4.182686399E+01  4.325647976E+01  4.768371582E-07  0.00000E+00  9.000E+00
      21     1     1     2   501   512 -1.568325059E+01 -1.470128580E+01 -2.770924767E+02  2.779250489E+02  6.607249480E-06  0.00000E+00  9.000E+00
      21     1     3     3   513   502 -1.194087728E+00 -1.194634049E+01 -6.736743417E+00  1.376679368E+01  3.264680848E-07  0.00000E+00  9.000E+00
#rwgt            1          17   109.21510168673578                1     5001542           0      100111           0
<weights>
0.12850E+02
</weights>
</event>
<event>
     15  10001  1.35503E+01  1.75621E+01 -1.00000E+00  4.08946E-01
      -3    -1     0     0     0   511  0.000000000E+00  0.000000000E+00  2.229228854E+02  2.229228854E+02  0.000000000E+00  0.00000E+00  9.000E+00
       3    -1     0     0   501     0  0.000000000E+00  0.000000000E+00 -2.974147997E+02  2.974147997E+02  0.000000000E+00  0.00000E+00  9.000E+00
      -6     2     1     2     0   507  1.484075704E+02  2.146497666E+01 -1.088817453E+02  2.532957825E+02  1.726787967E+02  0.00000E+00  9.000E+00
       6     2     1     2   507     0 -1.309558895E+02 -1.949913346E+01  7.145805442E+01  2.260238712E+02  1.686738735E+02  0.00000E+00  9.000E+00
     -24     2     3     3     0     0  4.193338133E+01 -1.465197694E+01 -1.056241325E+02  1.402113696E+02  8.080644713E+01  0.00000E+00  9.000E+00
      24     2     4     4     0     0 -4.876405944E+01  3.878203838E+01  6.152545967E+01  1.196882973E+02  8.159611710E+01  0.00000E+00  9.000E+00
     -11     1     6     6     0     0  6.478579379E+00  2.788839933E+01 -8.468800746E+00  2.985725028E+01  0.000000000E+00  0.00000E+00  9.000E+00
      12     1     6     6     0     0 -5.524263881E+01  1.089363905E+01  6.999426042E+01  8.983104701E+01  2.336015456E-06  0.00000E+00  9.000E+00
      13     1     5     5     0     0  3.092017852E+01  2.820163426E+01 -7.662607910E+01  8.730948180E+01  0.000000000E+00  0.00000E+00  9.000E+00
     -14     1     5     5     0     0  1.101320281E+01 -4.285361121E+01 -2.899805338E+01  5.290188777E+01  1.118282261E-06  0.00000E+00  9.000E+00
       5     1     4     4   512     0 -7.159080129E+00  3.367848620E-01  6.979472977E+00  1.107435756E+01  4.750000000E+00  0.00000E+00  9.000E+00
      -5     1     3     3     0   514  1.031025220E+02  3.609174440E+01 -1.659071245E+00  1.093529107E+02  4.750000000E+00  0.00000E+00  9.000E+00
      21     1     4     4   507   512 -7.503274990E+01 -5.861795671E+01  2.953121771E+00  9.526121632E+01  1.034101938E-06  0.00000E+00  9.000E+00
      21     1     1     2   501   511 -1.745168090E+01 -1.965843194E+00 -3.706822350E+01  4.101803139E+01  4.768371582E-07  0.00000E+00  9.000E+00
      21     1     3     3   514   507  3.371667013E+00  2.520920112E-02 -1.598541533E+00  3.731502243E+00  2.107342426E-08  0.00000E+00  9.000E+00
#rwgt            1          14   8.5100319790328449E-002           1     5006551           0      100111           0
<weights>
0.15925E+02
</weights>
</event>
<event>
     15  10001  1.35503E+01  6.12101E+01 -1.00000E+00  7.09211E-01
      21    -1     0     0   511   501  0.000000000E+00  0.000000000E+00  3.345995135E+03  3.345995135E+03  0.000000000E+00  0.00000E+00  9.000E+00
      21    -1     0     0   501   502  0.000000000E+00  0.000000000E+00 -2.852192196E+01  2.852192196E+01  0.000000000E+00  0.00000E+00  9.000E+00
      -6     2     1     2     0   502 -6.575428947E+01  4.581648737E+01  4.825032643E+02  5.187615793E+02  1.728623701E+02  0.00000E+00  9.000E+00
       6     2     1     2   507     0  2.146284040E+01 -8.806513311E+01  2.705014317E+03  2.712106089E+03  1.737839582E+02  0.00000E+00  9.000E+00
     -24     2     3     3     0     0 -8.789209349E+01  5.330147241E+01  4.758511476E+02  4.935070547E+02  8.092484968E+01  0.00000E+00  9.000E+00
      24     2     4     4     0     0 -5.247878454E+01 -6.385604465E+01  1.432023174E+03  1.436630212E+03  7.990231320E+01  0.00000E+00  9.000E+00
     -11     1     6     6     0     0 -1.198893819E+01  1.348360340E+00  7.817426557E+02  7.818357452E+02  0.000000000E+00  0.00000E+00  9.000E+00
      12     1     6     6     0     0 -4.048984635E+01 -6.520440499E+01  6.502805180E+02  6.547944671E+02  1.078959322E-05  0.00000E+00  9.000E+00
      13     1     5     5     0     0 -3.394146579E-01  4.049106799E+01  1.903068066E+02  1.945670127E+02  0.000000000E+00  0.00000E+00  9.000E+00
     -14     1     5     5     0     0 -8.755267884E+01  1.281040442E+01  2.855443410E+02  2.989400420E+02  3.814697266E-06  0.00000E+00  9.000E+00
       5     1     4     4   512     0  7.401497845E+01 -2.316571737E+01  1.267886823E+03  1.270265494E+03  4.750000000E+00  0.00000E+00  9.000E+00
      -5     1     3     3     0   513  2.168311027E+01 -6.450802397E+00  5.779948083E+00  2.382730414E+01  4.750000000E+00  0.00000E+00  9.000E+00
      21     1     1     2   511   507  4.429144907E+01  4.224864574E+01  1.299556324E+02  1.436493889E+02  1.907348633E-06  0.00000E+00  9.000E+00
      21     1     4     4   507   512 -7.335351950E-02 -1.043371085E+00  5.104320175E+00  5.210382751E+00  8.429369702E-08  0.00000E+00  9.000E+00
      21     1     3     3   513   502  4.546937591E-01 -1.034182639E+00  8.721685693E-01  1.427220431E+00  5.771194914E-08  0.00000E+00  9.000E+00
#rwgt            1          17   64.182061780924002                1     5007046           0       11011           0
<weights>
0.13325E+02
</weights>
</event>
<event>
     15  10001  1.35503E+01  9.76592E+00 -1.00000E+00  5.35058E-01
      21    -1     0     0   512   501  0.000000000E+00  0.000000000E+00  3.679249049E+02  3.679249049E+02  0.000000000E+00  0.00000E+00  9.000E+00
      21    -1     0     0   507   502  0.000000000E+00  0.000000000E+00 -1.984630406E+03  1.984630406E+03  0.000000000E+00  0.00000E+00  9.000E+00
      -6     2     1     2     0   501  1.220099968E+02 -4.399743378E+02 -3.646512324E+02  6.092858199E+02  1.726117952E+02  0.00000E+00  9.000E+00
       6     2     1     2   507     0 -1.314113931E+02  4.373310658E+02 -1.457728005E+03  1.537364030E+03  1.731756565E+02  0.00000E+00  9.000E+00
     -24     2     3     3     0     0  4.274276702E+01 -1.937202082E+02 -2.397518712E+02  3.218158792E+02  8.203680393E+01  0.00000E+00  9.000E+00
      24     2     4     4     0     0 -8.140740557E+01  3.208129699E+02 -8.272229111E+02  8.940735661E+02  7.430793739E+01  0.00000E+00  9.000E+00
     -11     1     6     6     0     0 -1.749086290E+01  2.140226954E+02 -5.183044853E+02  5.610269012E+02  0.000000000E+00  0.00000E+00  9.000E+00
      12     1     6     6     0     0 -6.391654267E+01  1.067902744E+02 -3.089184259E+02  3.330466649E+02  3.814697266E-06  0.00000E+00  9.000E+00
      13     1     5     5     0     0  3.599006249E+01 -4.227693833E+01 -3.027113217E+01  6.323737467E+01  0.000000000E+00  0.00000E+00  9.000E+00
     -14     1     5     5     0     0  6.752704532E+00 -1.514432698E+02 -2.094807391E+02  2.585785046E+02  3.814697266E-06  0.00000E+00  9.000E+00
       5     1     4     4   511     0 -3.373051433E+01  9.087541919E+01 -4.949146245E+02  5.043402993E+02  4.750000000E+00  0.00000E+00  9.000E+00
      -5     1     3     3     0   514  7.746290156E+01 -2.435783901E+02 -1.226993675E+02  2.835641559E+02  4.750000000E+00  0.00000E+00  9.000E+00
      21     1     1     2   512   502  9.401396265E+00  2.643271940E+00  2.056737363E+02  2.059054612E+02  7.136645101E-06  0.00000E+00  9.000E+00
      21     1     4     4   507   511 -1.627347319E+01  2.564267675E+01 -1.355904693E+02  1.389501643E+02  1.907348633E-06  0.00000E+00  9.000E+00
      21     1     3     3   514   501  1.804328238E+00 -2.675739534E+00 -2.199993726E+00  3.905784792E+00  5.960464478E-08  0.00000E+00  9.000E+00
#rwgt            1          17   87.026990502274259                1     5016544           0       11011           0
<weights>
0.14241E+02
</weights>
</event>
<event>
     15  10001  1.35503E+01  5.30095E+01 -1.00000E+00  6.06561E-01
      21    -1     0     0   511   501  0.000000000E+00  0.000000000E+00  8.170158544E+01  8.170158544E+01  0.000000000E+00  0.00000E+00  9.000E+00
      21    -1     0     0   501   502  0.000000000E+00  0.000000000E+00 -1.538898348E+03  1.538898348E+03  0.000000000E+00  0.00000E+00  9.000E+00
      -6     2     1     2     0   502  1.883042236E+02  1.704324769E+02 -1.055287797E+03  1.099078617E+03  1.727303124E+02  0.00000E+00  9.000E+00
       6     2     1     2   507     0 -1.463563284E+02 -1.380229583E+02 -2.628537667E+02  3.727048154E+02  1.713075156E+02  0.00000E+00  9.000E+00
     -24     2     3     3     0     0  1.758873970E+02  7.093498771E+01 -7.212014725E+02  7.501321826E+02  8.123163469E+01  0.00000E+00  9.000E+00
      24     2     4     4     0     0 -1.418239080E+02 -9.197788728E+01 -2.633885031E+02  3.227079602E+02  7.869543433E+01  0.00000E+00  9.000E+00
     -11     1     6     6     0     0 -5.287654126E+01 -2.240005680E+01 -3.325311217E+01  6.635857616E+01  0.000000000E+00  0.00000E+00  9.000E+00
      12     1     6     6     0     0 -8.894736674E+01 -6.957783048E+01 -2.301353909E+02  2.563493840E+02  4.672030912E-06  0.00000E+00  9.000E+00
      13     1     5     5     0     0  1.185084028E+02  8.603691344E+01 -4.879373412E+02  5.094403213E+02  0.000000000E+00  0.00000E+00  9.000E+00
     -14     1     5     5     0     0  5.737899422E+01 -1.510192573E+01 -2.332641313E+02  2.406918613E+02  5.394796609E-06  0.00000E+00  9.000E+00
       5     1     4     4   512     0 -7.151920597E+00 -4.254843498E+01  5.068062013E+00  4.370088146E+01  4.750000000E+00  0.00000E+00  9.000E+00
      -5     1     3     3     0   513  1.277962122E+01  9.939980671E+01 -3.320849693E+02  3.469101175E+02  4.750000000E+00  0.00000E+00  9.000E+00
      21     1     1     2   511   507 -4.194789525E+01 -3.240951860E+01 -1.390551987E+02  1.488165014E+02  0.000000000E+00  0.00000E+00  9.000E+00
      21     1     4     4   507   512  2.619500198E+00 -3.496635991E+00 -4.533325660E+00  6.295973799E+00  1.976862425E-07  0.00000E+00  9.000E+00
      21     1     3     3   513   502 -3.627945645E-01  9.768244121E-02 -2.001355493E+00  2.036316666E+00  2.980232239E-08  0.00000E+00  9.000E+00
#rwgt            1          17   19.353619687259691                1     5026941           0       11011           0
<weights>
0.11572E+02
</weights>
</event>
<event>
     14  10001  1.35503E+01  4.88416E+01 -1.00000E+00  2.17739E-01
      21    -1     0     0   507   512  0.000000000E+00  0.000000000E+00  2.141992095E+02  2.141992095E+02  0.000000000E+00  0.00000E+00  9.000E+00
      21    -1     0     0   501   502  0.000000000E+00  0.000000000E+00 -2.734911132E+02  2.734911132E+02  0.000000000E+00  0.00000E+00  9.000E+00
      -6     2     1     2     0   502  1.393373732E+02  2.315351360E+01 -4.479219220E+01  2.292886893E+02  1.749742090E+02  0.00000E+00  9.000E+00
       6     2     1     2   507     0 -1.169059581E+02  2.023235143E+01 -6.276645366E+00  2.088726471E+02  1.717906730E+02  0.00000E+00  9.000E+00
     -24     2     3     3     0     0  1.230885634E+02  2.639429662E+01  2.763443198E+01  1.514133209E+02  7.946621042E+01  0.00000E+00  9.000E+00
      24     2     4     4     0     0 -8.071207905E+01  7.803936114E+01 -1.687769044E+01  1.396874470E+02  8.138270594E+01  0.00000E+00  9.000E+00
     -11     1     6     6     0     0 -5.664020224E+01  5.398867781E+01  2.822905749E+01  8.318515209E+01  0.000000000E+00  0.00000E+00  9.000E+00
      12     1     6     6     0     0 -2.407187681E+01  2.405068333E+01 -4.510674794E+01  5.650229492E+01  9.536743164E-07  0.00000E+00  9.000E+00
      13     1     5     5     0     0  9.152516902E+01  4.447233111E+01 -5.915227318E+00  1.019295576E+02  0.000000000E+00  0.00000E+00  9.000E+00
     -14     1     5     5     0     0  3.156339434E+01 -1.807803449E+01  3.354965930E+01  4.948376332E+01  6.743495762E-07  0.00000E+00  9.000E+00
       5     1     4     4   507     0 -3.619387906E+01 -5.780700971E+01  1.060104508E+01  6.918520008E+01  4.750000000E+00  0.00000E+00  9.000E+00
      -5     1     3     3     0   511  1.607329700E+01  8.821717742E-01 -7.175825656E+01  7.369490477E+01  4.750000000E+00  0.00000E+00  9.000E+00
      21     1     1     2   501   512 -2.243141510E+01 -4.338586503E+01 -8.223066065E+00  4.952898629E+01  1.278377210E-06  0.00000E+00  9.000E+00
      21     1     3     3   511   502  1.755128517E-01 -4.122954798E+00 -6.683676155E-01  4.180463646E+00  7.706940497E-08  0.00000E+00  9.000E+00
#rwgt            1          17   53.769226954421214                1     5035169           0         111           0
<weights>
0.13339E+02
</weights>
</event>
<event>
     15  10001  1.35503E+01  4.51292E+01 -1.00000E+00  3.17178E-01
      21    -1     0     0   511   501  0.000000000E+00  0.000000000E+00  1.766974686E+03  1.766974686E+03  0.000000000E+00  0.00000E+00  9.000E+00
      21    -1     0     0   501   502  0.000000000E+00  0.000000000E+00 -3.017019730E+01  3.017019730E+01  0.000000000E+00  0.00000E+00  9.000E+00
      -6     2     1     2     0   502  1.521964305E+01  5.368186128E+00  4.916978290E+02  5.213059431E+02  1.724316567E+02  0.00000E+00  9.000E+00
       6     2     1     2   507     0 -1.335762408E+01  3.972261376E+01  5.212574888E+02  5.505843164E+02  1.722713197E+02  0.00000E+00  9.000E+00
     -24     2     3     3     0     0  7.419549686E+01 -1.350628475E+01  3.025070011E+02  3.220252235E+02  8.063725790E+01  0.00000E+00  9.000E+00
      24     2     4     4     0     0  7.693089649E-01  3.949707935E+01  5.257657924E+02  5.336172332E+02  8.220141125E+01  0.00000E+00  9.000E+00
     -11     1     6     6     0     0  3.891994782E+01  1.816299299E+01  1.776575176E+02  1.827754092E+02  0.000000000E+00  0.00000E+00  9.000E+00
      12     1     6     6     0     0 -3.815063885E+01  2.133408636E+01  3.481082748E+02  3.508418240E+02  5.394796609E-06  0.00000E+00  9.000E+00
      13     1     5     5     0     0  1.179797592E+01 -2.658119908E+01  1.940611493E+02  1.962281378E+02  0.000000000E+00  0.00000E+00  9.000E+00
     -14     1     5     5     0     0  6.239752094E+01  1.307491433E+01  1.084458518E+02  1.257970857E+02  2.336015456E-06  0.00000E+00  9.000E+00
       5     1     4     4   514     0 -1.472996205E+01 -1.321996800E-01 -4.804377393E+00  1.620598040E+01  4.750000000E+00  0.00000E+00  9.000E+00
      -5     1     3     3     0   512 -5.415833256E+01  1.506826087E+01  1.680883991E+02  1.773032709E+02  4.750000000E+00  0.00000E+00  9.000E+00
      21     1     1     2   511   507 -1.862018971E+00 -4.509079989E+01  7.238491706E+02  7.252546237E+02  7.629394531E-06  0.00000E+00  9.000E+00
      21     1     3     3   512   502 -4.817521247E+00  3.806210009E+00  2.110242885E+01  2.197744864E+01  2.384185791E-07  0.00000E+00  9.000E+00
      21     1     4     4   507   514  6.030289981E-01  3.577340936E-01  2.960737933E-01  7.611027167E-01  2.737518112E-08  0.00000E+00  9.000E+00
#rwgt            1          17   24.334124076453350                1     5047105           0       11110           0
<weights>
0.16410E+02
</weights>
</event>
<event>
     15  10001  1.35503E+01  7.23239E+01 -1.00000E+00  4.18936E-01
      21    -1     0     0   502   501  0.000000000E+00  0.000000000E+00  5.467635454E+01  5.467635454E+01  0.000000000E+00  0.00000E+00  9.000E+00
       2    -1     0     0   507     0  0.000000000E+00  0.000000000E+00 -2.252394782E+03  2.252394782E+03  0.000000000E+00  0.00000E+00  9.000E+00
      -6     2     1     2     0   501 -1.629979596E+02  7.439401709E+01 -5.458024777E+02  5.998498649E+02  1.726751608E+02  0.00000E+00  9.000E+00
       6     2     1     2   507     0  1.565650674E+02 -1.464312414E+02 -6.983288006E+02  7.508953885E+02  1.738563828E+02  0.00000E+00  9.000E+00
     -24     2     3     3     0     0 -7.312378250E+01  3.647768110E+01 -4.463823097E+02  4.604534078E+02  7.799016357E+01  0.00000E+00  9.000E+00
      24     2     4     4     0     0  1.034088856E+02 -9.638008102E+01 -6.255986468E+02  6.465396186E+02  8.159224234E+01  0.00000E+00  9.000E+00
     -11     1     6     6     0     0  4.197914795E+01 -8.518905501E+01 -2.891857896E+02  3.043810849E+02  0.000000000E+00  0.00000E+00  9.000E+00
      12     1     6     6     0     0  6.142973761E+01 -1.119102601E+01 -3.364128572E+02  3.421585337E+02  3.814697266E-06  0.00000E+00  9.000E+00
      13     1     5     5     0     0 -8.617609685E+01  3.848098720E+01 -4.247525955E+02  4.351113345E+02  0.000000000E+00  0.00000E+00  9.000E+00
     -14     1     5     5     0     0  1.305231434E+01 -2.003306101E+00 -2.162971421E+01  2.534207335E+01  5.331201500E-07  0.00000E+00  9.000E+00
       5     1     4     4   511     0  5.410894787E+01 -4.861809446E+01 -6.962293585E+01  1.008038345E+02  4.750000000E+00  0.00000E+00  9.000E+00
      -5     1     3     3     0   512 -7.027375131E+01  2.932907125E+01 -7.668661488E+01  1.081757549E+02  4.750000000E+00  0.00000E+00  9.000E+00
       2     1     1     2   502     0  6.432892149E+00  7.203722435E+01 -9.535871487E+02  9.563258828E+02  0.000000000E+00  0.00000E+00  9.000E+00
      21     1     4     4   507   511 -9.527659952E-01 -1.433065956E+00 -3.107217982E+00  3.551935341E+00  4.214684851E-08  0.00000E+00  9.000E+00
      21     1     3     3   512   501 -1.960042577E+01  8.587264740E+00 -2.273355314E+01  3.122070218E+01  5.840038640E-07  0.00000E+00  9.000E+00
#rwgt            1          17   8.1461282561403259                1     5057680           0       11011           0
<weights>
0.17723E+02
</weights>
</event>
<event>
     15  10001  1.35503E+01  6.14160E+01 -1.00000E+00  3.87161E-01
       1    -1     0     0   511     0  0.000000000E+00  0.000000000E+00  2.511265661E+02  2.511265661E+02  0.000000000E+00  0.00000E+00  9.000E+00
      -1    -1     0     0     0   502  0.000000000E+00  0.000000000E+00 -6.495770828E+02  6.495770828E+02  0.000000000E+00  0.00000E+00  9.000E+00
      -6     2     1     2     0   507 -2.632646409E+02 -1.390056313E+02 -1.962564654E+02  3.960413212E+02  1.723406257E+02  0.00000E+00  9.000E+00
       6     2     1     2   507     0  2.159210526E+02  1.781273413E+02 -2.605765580E+02  4.199248470E+02  1.734516758E+02  0.00000E+00  9.000E+00
     -24     2     3     3     0     0 -9.997233191E+01 -1.163071304E+02 -6.409779899E+01  1.846130122E+02  8.032198155E+01  0.00000E+00  9.000E+00
      24     2     4     4     0     0  2.046938576E+02  1.807040859E+02 -2.776899315E+02  3.971804661E+02  7.801975794E+01  0.00000E+00  9.000E+00
     -11     1     6     6     0     0  3.979604782E+01  2.309132290E+00 -2.733867038E+01  4.833694666E+01  0.000000000E+00  0.00000E+00  9.000E+00
      12     1     6     6     0     0  1.648978098E+02  1.783949536E+02 -2.503512611E+02  3.488435195E+02  6.031565972E-06  0.00000E+00  9.000E+00
      13     1     5     5     0     0 -8.106931037E+01 -1.125219821E+02 -7.957335523E+01  1.598916771E+02  0.000000000E+00  0.00000E+00  9.000E+00
     -14     1     5     5     0     0 -1.890302154E+01 -3.785148310E+00  1.547555623E+01  2.472133515E+01  9.830249847E-07  0.00000E+00  9.000E+00
       5     1     4     4   513     0  1.046082957E+01 -4.450732532E+00  1.656904482E+01  2.064785029E+01  4.750000000E+00  0.00000E+00  9.000E+00
      -5     1     3     3     0   512 -1.485996546E+02 -2.105571369E+01 -1.222509215E+02  1.936312235E+02  4.750000000E+00  0.00000E+00  9.000E+00
      21     1     1     2   511   502  4.734358825E+01 -3.912171005E+01  5.838250668E+01  8.473748068E+01  1.651812370E-06  0.00000E+00  9.000E+00
      21     1     3     3   512   507 -1.469265438E+01 -1.642787168E+00 -9.907744884E+00  1.779708546E+01  1.192092896E-07  0.00000E+00  9.000E+00
      21     1     4     4   507   513  7.663654713E-01  1.873987951E+00  5.443286210E-01  2.096530592E+00  5.424104548E-08  0.00000E+00  9.000E+00
#rwgt            1           4  0.34879583739590353                1     5070092           0       11110           0
<weights>
-.15591E+01
</weights>
</event>
<event>
     15  10001 -1.35503E+01  1.07031E+01 -1.00000E+00  4.81413E-01
      21    -1     0     0   512   501  0.000000000E+00  0.000000000E+00  4.454232539E+02  4.454232539E+02  0.000000000E+00  0.00000E+00  9.000E+00
      21    -1     0     0   507   502  0.000000000E+00  0.000000000E+00 -6.522002286E+02  6.522002286E+02  0.000000000E+00  0.00000E+00  9.000E+00
      -6     2     1     2     0   501  4.774111685E+01  8.929072185E+01  1.520604219E+02  2.512314622E+02  1.724610925E+02  0.00000E+00  9.000E+00
       6     2     1     2   507     0 -5.586319992E+01 -9.626120945E+01  2.005097532E+02  2.869424784E+02  1.724671194E+02  0.00000E+00  9.000E+00
     -24     2     3     3     0     0  1.437784609E+01  5.884385513E+01  7.492573663E+00  9.940767681E+01  7.846289444E+01  0.00000E+00  9.000E+00
      24     2     4     4     0     0 -1.325006697E+00  1.185516497E+00  5.019524307E+01  9.906256764E+01  8.538541321E+01  0.00000E+00  9.000E+00
     -11     1     6     6     0     0  1.004666534E+01 -3.252906222E+00 -2.276136005E+01  2.509175949E+01  0.000000000E+00  0.00000E+00  9.000E+00
      12     1     6     6     0     0 -1.137167203E+01  4.438422719E+00  7.295660311E+01  7.397080815E+01  9.536743164E-07  0.00000E+00  9.000E+00
      13     1     5     5     0     0  4.242211312E+01  1.820858203E+01 -9.613557404E+00  4.715515483E+01  0.000000000E+00  0.00000E+00  9.000E+00
     -14     1     5     5     0     0 -2.804426703E+01  4.063527310E+01  1.710613107E+01  5.225252198E+01  9.536743164E-07  0.00000E+00  9.000E+00
       5     1     4     4   511     0 -5.436944508E+01 -9.668563721E+01  1.505536704E+02  1.870644786E+02  4.750000000E+00  0.00000E+00  9.000E+00
      -5     1     3     3     0   514  3.222342274E+01  3.082634150E+01  1.428753737E+02  1.497482795E+02  4.750000000E+00  0.00000E+00  9.000E+00
      21     1     1     2   512   502  8.122083076E+00  6.970487599E+00 -5.593471498E+02  5.594495419E+02  0.000000000E+00  0.00000E+00  9.000E+00
      21     1     4     4   507   511 -1.687481450E-01 -7.610887433E-01 -2.391602813E-01  8.154321871E-01  2.442836212E-08  0.00000E+00  9.000E+00
      21     1     3     3   514   501  1.139848009E+00 -3.794747747E-01  1.692474602E+00  2.075505930E+00  4.214684851E-08  0.00000E+00  9.000E+00
#rwgt            1          17  -2.2031713112524534                1     5076113           0       11011           0
<weights>
0.42228E+02
</weights>
</event>
<event>
     13  10001  1.35503E+01  1.90947E+02 -1.00000E+00  1.12385E-01
      21    -1     0     0   507   501  0.000000000E+00  0.000000000E+00  2.898935003E+02  2.898935003E+02  0.000000000E+00  0.00000E+00  9.000E+00
       2    -1     0     0   501     0  0.000000000E+00  0.000000000E+00 -9.757264912E+02  9.757264912E+02  0.000000000E+00  0.00000E+00  9.000E+00
      -6     2     1     2     0   502  1.752084893E+01  6.726039752E+01 -5.147159168E+01  1.931644374E+02  1.727201028E+02  0.00000E+00  9.000E+00
       6     2     1     2   507     0 -2.016499657E+02 -1.178290934E+02  1.049748950E+02  3.088595349E+02  1.727080769E+02  0.00000E+00  9.000E+00
     -24     2     3     3     0     0 -4.086183396E+00  1.057924900E+02 -1.016780398E+01  1.325001862E+02  7.902004349E+01  0.00000E+00  9.000E+00
      24     2     4     4     0     0 -9.173234065E+01 -2.359391405E+00  5.669178667E+01  1.422193314E+02  9.269299056E+01  0.00000E+00  9.000E+00
     -11     1     6     6     0     0 -1.051603883E+02  1.674575078E+01  4.110654901E+01  1.141441011E+02  0.000000000E+00  0.00000E+00  9.000E+00
      12     1     6     6     0     0  1.342804769E+01 -1.910514219E+01  1.558523766E+01  2.807523029E+01  5.331201500E-07  0.00000E+00  9.000E+00
      13     1     5     5     0     0  1.163362318E+01  3.388384047E+00 -2.505617348E+01  2.783225043E+01  0.000000000E+00  0.00000E+00  9.000E+00
     -14     1     5     5     0     0 -1.571980658E+01  1.024041059E+02  1.488836950E+01  1.046679358E+02  3.295010319E-06  0.00000E+00  9.000E+00
       5     1     4     4   507     0 -1.099176250E+02 -1.154697020E+02  4.828310830E+01  1.666402035E+02  4.750000000E+00  0.00000E+00  9.000E+00
      -5     1     3     3     0   502  2.160703233E+01 -3.853209247E+01 -4.130378770E+01  6.066425121E+01  4.750000000E+00  0.00000E+00  9.000E+00
       2     1     1     2   502     0  1.841291167E+02  5.056869593E+01 -7.393362941E+02  7.635960192E+02  0.000000000E+00  0.00000E+00  9.000E+00
#rwgt            2          94   4.4848611488587817                1     5108467           0           1           0
<weights>
0.13550E+02
</weights>
</event>
<event>
     14  10001  1.35503E+01  1.12796E+02 -1.00000E+00  1.60379E-01
      21    -1     0     0   511   501  0.000000000E+00  0.000000000E+00  3.183933360E+01  3.183933360E+01  0.000000000E+00  0.00000E+00  9.000E+00
      21    -1     0     0   507   502  0.000000000E+00  0.000000000E+00 -2.202162409E+03  2.202162409E+03  0.000000000E+00  0.00000E+00  9.000E+00
      -6     2     1     2     0   501 -7.247367157E+01 -1.963451725E+01 -5.632314919E+02  5.939979617E+02  1.731066656E+02  0.00000E+00  9.000E+00
       6     2     1     2   507     0  7.282964738E+00  1.116838107E+02 -1.209758501E+03  1.226970514E+03  1.715071358E+02  0.00000E+00  9.000E+00
     -24     2     3     3     0     0 -6.299093570E+01 -5.640577869E+01 -4.803091980E+02  4.940446551E+02  7.895394683E+01  0.00000E+00  9.000E+00
      24     2     4     4     0     0  2.643396926E+01  1.009520100E+02 -5.029918361E+02  5.198470362E+02  7.968745698E+01  0.00000E+00  9.000E+00
     -11     1     6     6     0     0 -1.795539156E+01  3.861301433E+01 -8.686071298E+01  9.673750266E+01  0.000000000E+00  0.00000E+00  9.000E+00
      12     1     6     6     0     0  4.438936081E+01  6.233899563E+01 -4.161311231E+02  4.231095335E+02  7.629394531E-06  0.00000E+00  9.000E+00
      13     1     5     5     0     0 -3.180152119E+01 -1.940247806E-01 -3.161771975E+02  3.177725517E+02  0.000000000E+00  0.00000E+00  9.000E+00
     -14     1     5     5     0     0 -3.118941451E+01 -5.621175391E+01 -1.641320005E+02  1.762721034E+02  1.907348633E-06  0.00000E+00  9.000E+00
       5     1     4     4   507     0 -1.915100452E+01  1.073180076E+01 -7.067666647E+02  7.071234782E+02  4.750000000E+00  0.00000E+00  9.000E+00
      -5     1     3     3     0   512  4.511566980E+00  3.926351670E+01 -7.101498905E+01  8.141049779E+01  4.750000000E+00  0.00000E+00  9.000E+00
      21     1     1     2   511   502  6.519070683E+01 -9.204929347E+01 -3.973330822E+02  4.130332661E+02  5.394796609E-06  0.00000E+00  9.000E+00
      21     1     3     3   512   501 -1.399430286E+01 -2.492255262E+00 -1.190730487E+01  1.854280879E+01  6.743495762E-07  0.00000E+00  9.000E+00
#rwgt            1          17   49.757327938307576                1     5108953           0         111           0
<weights>
0.11342E+02
</weights>
</event>
<event>
     14  10001  1.35503E+01  4.72898E+01 -1.00000E+00  7.52142E-01
      21    -1     0     0   507   512  0.000000000E+00  0.000000000E+00  5.514006063E+02  5.514006063E+02  0.000000000E+00  0.00000E+00  9.000E+00
      21    -1     0     0   501   502  0.000000000E+00  0.000000000E+00 -3.375033782E+02  3.375033782E+02  0.000000000E+00  0.00000E+00  9.000E+00
      -6     2     1     2     0   502  2.369726245E+02 -2.495032716E+01 -1.661874156E+02  3.378323505E+02  1.724351945E+02  0.00000E+00  9.000E+00
       6     2     1     2   507     0 -2.190813610E+02 -1.882436501E+01  1.520592795E+02  3.181942248E+02  1.725530084E+02  0.00000E+00  9.000E+00
     -24     2     3     3     0     0  2.176339989E+02  1.920824542E+01 -9.469158050E+01  2.514716018E+02  8.085763370E+01  0.00000E+00  9.000E+00
      24     2     4     4     0     0 -1.220326971E+02 -6.954449720E+01  4.667987822E+01  1.651298553E+02  7.321503834E+01  0.00000E+00  9.000E+00
     -11     1     6     6     0     0 -2.965818367E+01  1.481330809E+01  1.268697951E+01  3.549649848E+01  0.000000000E+00  0.00000E+00  9.000E+00
      12     1     6     6     0     0 -9.237451340E+01 -8.435780530E+01  3.399289871E+01  1.296333568E+02  2.739220927E-06  0.00000E+00  9.000E+00
      13     1     5     5     0     0  1.462027043E+02 -1.487472540E+01 -8.969611125E+01  1.721681753E+02  0.000000000E+00  0.00000E+00  9.000E+00
     -14     1     5     5     0     0  7.143129455E+01  3.408297082E+01 -4.995469248E+00  7.930342650E+01  2.718390048E-06  0.00000E+00  9.000E+00
       5     1     4     4   511     0 -4.870931003E+01  1.958487480E+01  4.126824501E+01  6.694620789E+01  4.750000000E+00  0.00000E+00  9.000E+00
      -5     1     3     3     0   502  1.933862567E+01 -4.415857259E+01 -7.149583512E+01  8.636074869E+01  4.750000000E+00  0.00000E+00  9.000E+00
      21     1     1     2   501   512 -1.789126350E+01  4.377469218E+01  2.280253642E+02  2.328774092E+02  3.814697266E-06  0.00000E+00  9.000E+00
      21     1     4     4   507   511 -4.833935394E+01  3.113525739E+01  6.411115627E+01  8.611816156E+01  1.348699152E-06  0.00000E+00  9.000E+00
#rwgt            1          17   21.943779773713604                1     5121567           0         110           0
<weights>
0.12640E+02
</weights>
</event>
<event>
     14  10001  1.35503E+01  8.22617E+01 -1.00000E+00  7.47265E-01
      21    -1     0     0   507   511  0.000000000E+00  0.000000000E+00  6.512563997E+02  6.512563997E+02  0.000000000E+00  0.00000E+00  9.000E+00
      21    -1     0     0   501   502  0.000000000E+00  0.000000000E+00 -9.512016253E+02  9.512016253E+02  0.000000000E+00  0.00000E+00  9.000E+00
      -6     2     1     2     0   502  1.817997512E+02  1.140251669E+02 -7.698957106E+02  8.179822994E+02  1.740768468E+02  0.00000E+00  9.000E+00
       6     2     1     2   507     0 -1.405972651E+02 -1.852244315E+02  1.629872528E+02  4.666811282E+02  3.703386962E+02  0.00000E+00  9.000E+00
     -24     2     3     3     0     0  1.152296194E+02  5.870540122E+01 -2.786488172E+02  3.191457212E+02  8.651380645E+01  0.00000E+00  9.000E+00
      24     2     4     4     0     0  1.044103905E+02 -9.146529338E+01  6.534930313E+00  1.607355960E+02  8.078240509E+01  0.00000E+00  9.000E+00
     -11     1     6     6     0     0  5.206518832E+01 -1.362980491E+00  1.973996655E+01  5.569836470E+01  0.000000000E+00  0.00000E+00  9.000E+00
      12     1     6     6     0     0  5.234520219E+01 -9.010231289E+01 -1.320503624E+01  1.050372313E+02  4.422005890E-06  0.00000E+00  9.000E+00
      13     1     5     5     0     0  1.573221105E+01 -2.051186226E+01 -7.195713036E+01  7.645958126E+01  0.000000000E+00  0.00000E+00  9.000E+00
     -14     1     5     5     0     0  9.949740839E+01  7.921726348E+01 -2.066916869E+02  2.426861400E+02  2.697398305E-06  0.00000E+00  9.000E+00
       5     1     4     4   512     0 -2.181475362E+02 -7.779319910E+01  1.366950343E+02  2.689762522E+02  4.750000000E+00  0.00000E+00  9.000E+00
      -5     1     3     3     0   502  6.657013179E+01  5.531976569E+01 -4.912468934E+02  4.988365781E+02  4.750000000E+00  0.00000E+00  9.000E+00
      21     1     1     2   501   511 -4.120248609E+01  7.119926461E+01  3.069632322E+02  3.177945973E+02  6.607249480E-06  0.00000E+00  9.000E+00
      21     1     4     4   507   512 -2.686011947E+01 -1.596593904E+01  1.975728816E+01  3.696927999E+01  2.384185791E-07  0.00000E+00  9.000E+00
#rwgt            1          17   15.112268188902837                1     5127519           0         110           0
<weights>
0.13527E+02
</weights>
</event>
<event>
     15  10001  1.35503E+01  1.19137E+01 -1.00000E+00  2.81909E-01
      21    -1     0     0   512   501  0.000000000E+00  0.000000000E+00  8.725507026E+01  8.725507026E+01  0.000000000E+00  0.00000E+00  9.000E+00
      21    -1     0     0   501   502  0.000000000E+00  0.000000000E+00 -5.750631443E+02  5.750631443E+02  0.000000000E+00  0.00000E+00  9.000E+00
      -6     2     1     2     0   502  3.840354440E+01  4.974254085E+01 -4.118161386E+02  4.486692981E+02  1.666206904E+02  0.00000E+00  9.000E+00
       6     2     1     2   507     0 -3.192430480E+01 -5.974029556E+01 -4.721025921E+01  1.824989480E+02  1.627543957E+02  0.00000E+00  9.000E+00
     -24     2     3     3     0     0  4.298175761E+01  9.253619452E+01 -3.322953893E+02  3.568421056E+02  8.065781895E+01  0.00000E+00  9.000E+00
      24     2     4     4     0     0  3.978085344E+01 -3.205378850E+01 -1.519306094E+01  9.689427908E+01  8.091792483E+01  0.00000E+00  9.000E+00
     -11     1     6     6     0     0 -2.595456216E+00  2.437256500E+01  8.562606079E-01  2.452532364E+01  0.000000000E+00  0.00000E+00  9.000E+00
      12     1     6     6     0     0  4.237630966E+01 -5.642635350E+01 -1.604932155E+01  7.236895544E+01  1.922192037E-06  0.00000E+00  9.000E+00
      13     1     5     5     0     0  5.993899332E+01  5.447094795E+01 -1.569803853E+02  1.766426009E+02  0.000000000E+00  0.00000E+00  9.000E+00
     -14     1     5     5     0     0 -1.695723571E+01  3.806524657E+01 -1.753150040E+02  1.801995047E+02  0.000000000E+00  0.00000E+00  9.000E+00
       5     1     4     4   511     0 -7.224305279E+01 -2.496827033E+01 -3.136854172E+01  8.275881288E+01  4.750000000E+00  0.00000E+00  9.000E+00
      -5     1     3     3     0   513 -5.784785458E+00 -4.169609350E+01 -6.747134022E+01  7.966788693E+01  4.750000000E+00  0.00000E+00  9.000E+00
      21     1     1     2   512   507 -6.479239595E+00  9.997754714E+00 -2.878167629E+01  3.114996846E+01  6.743495762E-07  0.00000E+00  9.000E+00
      21     1     4     4   507   511  5.378945386E-01 -2.718236733E+00 -6.486565495E-01  2.845856074E+00  4.148307713E-08  0.00000E+00  9.000E+00
      21     1     3     3   513   502  1.206572248E+00 -1.097560171E+00 -1.204940904E+01  1.215930562E+01  1.685873940E-07  0.00000E+00  9.000E+00
#rwgt            1          17   41.924153406753547                1     5140142           0       11011           0
<weights>
0.15834E+02
</weights>
</event>
<event>
     14  10001  1.35503E+01  9.02690E+00 -1.00000E+00  3.91980E-01
      21    -1     0     0   511   501  0.000000000E+00  0.000000000E+00  2.396655154E+03  2.396655154E+03  0.000000000E+00  0.00000E+00  9.000E+00
      21    -1     0     0   501   502  0.000000000E+00  0.000000000E+00 -3.022137727E+01  3.022137727E+01  0.000000000E+00  0.00000E+00  9.000E+00
      -6     2     1     2     0   502  4.514176999E+01  5.107377296E+01  1.235495503E+03  1.241705711E+03  1.036225135E+02  0.00000E+00  9.000E+00
       6     2     1     2   507     0 -5.323164521E+01 -5.507862265E+01  1.149316891E+03  1.164695018E+03  1.723888218E+02  0.00000E+00  9.000E+00
     -24     2     3     3     0     0  4.255372432E+01  5.985810910E+01  1.183720020E+03  1.188636202E+03  7.917778666E+01  0.00000E+00  9.000E+00
      24     2     4     4     0     0 -8.836010462E+01 -1.397339080E+01  9.485066154E+02  9.566782444E+02  8.698103283E+01  0.00000E+00  9.000E+00
     -11     1     6     6     0     0 -2.365785830E+01  2.740075450E+01  5.262973499E+02  5.275408953E+02  0.000000000E+00  0.00000E+00  9.000E+00
      12     1     6     6     0     0 -6.470224633E+01 -4.137414530E+01  4.222092654E+02  4.291373491E+02  9.344061824E-06  0.00000E+00  9.000E+00
      13     1     5     5     0     0  3.227010791E+01  3.244076251E+01  2.321934941E+02  2.366592099E+02  0.000000000E+00  0.00000E+00  9.000E+00
     -14     1     5     5     0     0  1.028361641E+01  2.741734659E+01  9.515265261E+02  9.519769921E+02  1.868812365E-05  0.00000E+00  9.000E+00
       5     1     4     4   507     0  3.512845941E+01 -4.110523185E+01  2.008102756E+02  2.080167734E+02  4.750000000E+00  0.00000E+00  9.000E+00
      -5     1     3     3     0   512  8.034326779E-01 -8.590061454E+00  4.328051024E+01  4.438693193E+01  4.750000000E+00  0.00000E+00  9.000E+00
      21     1     1     2   511   507  8.089875222E+00  4.004849685E+00 -1.837861737E+01  2.047580227E+01  2.336015456E-06  0.00000E+00  9.000E+00
      21     1     3     3   512   502  1.784612989E+00 -1.942746824E-01  8.494972215E+00  8.682576755E+00  1.685873940E-07  0.00000E+00  9.000E+00
#rwgt            1          17   192.91040514714885                1     5149108           0         111           0
<weights>
0.15798E+02
</weights>
</event>
<event>
     15  10001  1.35503E+01  6.47846E+01 -1.00000E+00  1.98066E-01
      21    -1     0     0   512   501  0.000000000E+00  0.000000000E+00  4.720374418E+02  4.720374418E+02  0.000000000E+00  0.00000E+00  9.000E+00
      21    -1     0     0   507   502  0.000000000E+00  0.000000000E+00 -8.295859162E+02  8.295859162E+02  0.000000000E+00  0.00000E+00  9.000E+00
      -6     2     1     2     0   501 -1.645975238E+02 -1.899578627E+02  2.852068082E+02  4.172198001E+02  1.719101618E+02  0.00000E+00  9.000E+00
       6     2     1     2   507     0  1.136688524E+02  1.499164208E+02 -7.312935504E+02  7.746945268E+02  1.731063594E+02  0.00000E+00  9.000E+00
     -24     2     3     3     0     0 -5.511221310E+01 -1.561906818E+02  1.424137152E+02  2.334158255E+02  8.227026291E+01  0.00000E+00  9.000E+00
      24     2     4     4     0     0  6.707386983E-01  1.074916603E+02 -4.005799291E+02  4.223900207E+02  7.996338591E+01  0.00000E+00  9.000E+00
     -11     1     6     6     0     0  1.464978020E+01  1.036704307E+02 -2.489735385E+02  2.700925715E+02  0.000000000E+00  0.00000E+00  9.000E+00
      12     1     6     6     0     0 -1.397904150E+01  3.821229612E+00 -1.516063906E+02  1.522974493E+02  4.672030912E-06  0.00000E+00  9.000E+00
      13     1     5     5     0     0  1.804957194E+00 -1.220701779E+01  5.343964001E+01  5.484582279E+01  0.000000000E+00  0.00000E+00  9.000E+00
     -14     1     5     5     0     0 -5.691717029E+01 -1.439836641E+02  8.897407523E+01  1.785700027E+02  4.862803949E-06  0.00000E+00  9.000E+00
       5     1     4     4   514     0  9.814136813E+01  3.423368531E+01 -2.732884997E+02  2.924257853E+02  4.750000000E+00  0.00000E+00  9.000E+00
      -5     1     3     3     0   511 -7.226442176E+01 -1.656887549E+01  9.951330335E+01  1.241858862E+02  4.750000000E+00  0.00000E+00  9.000E+00
      21     1     1     2   512   502  5.092867144E+01  4.004144186E+01  8.853826776E+01  1.097090311E+02  1.348699152E-06  0.00000E+00  9.000E+00
      21     1     3     3   511   501 -3.722088893E+01 -1.719830534E+01  4.327978964E+01  5.961808845E+01  1.066240300E-06  0.00000E+00  9.000E+00
      21     1     4     4   507   514  1.485674553E+01  8.191075195E+00 -5.742512159E+01  5.987872068E+01  1.168007728E-06  0.00000E+00  9.000E+00
#rwgt            1          17   162.69800808142853                1     5163027           0       11110           0
<weights>
0.16680E+02
</weights>
</event>
<event>
     15  10001  1.35503E+01  3.27750E+01 -1.00000E+00  2.60281E-01
      21    -1     0     0   502   511  0.000000000E+00  0.000000000E+00  2.223704922E+02  2.223704922E+02  0.000000000E+00  0.00000E+00  9.000E+00
      21    -1     0     0   507   502  0.000000000E+00  0.000000000E+00 -7.004443192E+02  7.004443192E+02  0.000000000E+00  0.00000E+00  9.000E+00
      -6     2     1     2     0   501 -2.287784452E+01  2.284257664E+01  1.060275135E+02  2.061505603E+02  1.738132354E+02  0.00000E+00  9.000E+00
       6     2     1     2   507     0  1.818731767E+01 -5.528015445E+01 -6.389753470E+01  1.954289904E+02  1.752795520E+02  0.00000E+00  9.000E+00
     -24     2     3     3     0     0 -6.766547453E+01 -2.688505234E+01  7.047833129E+01  1.294539935E+02  8.055879073E+01  0.00000E+00  9.000E+00
      24     2     4     4     0     0 -3.056603423E+01 -7.751069130E+01 -7.708261502E+01  1.393901205E+02  8.090541659E+01  0.00000E+00  9.000E+00
     -11     1     6     6     0     0 -2.094024733E+01 -6.262199478E+01 -9.400701863E+01  1.148796228E+02  0.000000000E+00  0.00000E+00  9.000E+00
      12     1     6     6     0     0 -9.625786896E+00 -1.488869651E+01  1.692440361E+01  2.451049764E+01  5.840038640E-07  0.00000E+00  9.000E+00
      13     1     5     5     0     0  1.112846311E+01 -7.764348109E+00  4.098964663E+01  4.317729639E+01  0.000000000E+00  0.00000E+00  9.000E+00
     -14     1     5     5     0     0 -7.879393764E+01 -1.912070423E+01  2.948868467E+01  8.627669710E+01  3.320786542E-06  0.00000E+00  9.000E+00
       5     1     4     4   513     0  4.718952808E+01  1.979491421E+01  1.347400122E+01  5.313004232E+01  4.750000000E+00  0.00000E+00  9.000E+00
      -5     1     3     3     0   512  4.087005433E+01  4.243373416E+01  3.425947545E+01  6.831732791E+01  4.750000000E+00  0.00000E+00  9.000E+00
      21     1     1     2   501   511  4.690526848E+00  3.243757781E+01 -5.202038057E+02  5.212352607E+02  7.629394531E-06  0.00000E+00  9.000E+00
      21     1     3     3   512   501  3.917575687E+00  7.293894813E+00  1.289706757E+00  8.379238887E+00  8.429369702E-08  0.00000E+00  9.000E+00
      21     1     4     4   507   513  1.563823825E+00  2.435622642E+00 -2.889209050E-01  2.908827582E+00  5.011865514E-08  0.00000E+00  9.000E+00
#rwgt            1          17   4.4716052759977591                1     5172146           0       11110           0
<weights>
0.14728E+02
</weights>
</event>
<event>
     15  10001  1.35503E+01  2.30699E+01 -1.00000E+00  3.63306E-01
      21    -1     0     0   512   501  0.000000000E+00  0.000000000E+00  5.396613505E+02  5.396613505E+02  0.000000000E+00  0.00000E+00  9.000E+00
      21    -1     0     0   507   502  0.000000000E+00  0.000000000E+00 -1.212906614E+02  1.212906614E+02  0.000000000E+00  0.00000E+00  9.000E+00
      -6     2     1     2     0   501  5.548854686E+01 -1.348134265E+02  1.937888874E+02  2.979093650E+02  1.730381983E+02  0.00000E+00  9.000E+00
       6     2     1     2   507     0 -7.781689842E+01  1.406156497E+02  2.391071465E+02  3.357808289E+02  1.724769751E+02  0.00000E+00  9.000E+00
     -24     2     3     3     0     0  3.848814500E+01 -1.672306446E+02  1.527581861E+02  2.416667445E+02  7.496883458E+01  0.00000E+00  9.000E+00
      24     2     4     4     0     0 -1.049440727E+02  1.550528935E+02  1.993456984E+02  2.852040043E+02  8.091945623E+01  0.00000E+00  9.000E+00
     -11     1     6     6     0     0 -8.395589271E+01  1.077104214E+02  1.877013104E+02  2.321247697E+02  0.000000000E+00  0.00000E+00  9.000E+00
      12     1     6     6     0     0 -2.098818002E+01  4.734247218E+01  1.164438802E+01  5.307923459E+01  1.460009660E-06  0.00000E+00  9.000E+00
      13     1     5     5     0     0  9.622646217E+00 -6.417101602E+01  1.391882091E+01  6.636451004E+01  0.000000000E+00  0.00000E+00  9.000E+00
     -14     1     5     5     0     0  2.886549878E+01 -1.030596286E+02  1.388393652E+02  1.753022344E+02  0.000000000E+00  0.00000E+00  9.000E+00
       5     1     4     4   514     0  2.266677952E+01 -1.196020648E+01  3.174893452E+01  4.107781367E+01  4.750000000E+00  0.00000E+00  9.000E+00
      -5     1     3     3     0   511  1.713485595E+01  3.239017127E+01  3.727831754E+01  5.248773135E+01  4.750000000E+00  0.00000E+00  9.000E+00
      21     1     1     2   512   502  2.232835157E+01 -5.802223193E+00 -1.452534481E+01  2.726181798E+01  2.384185791E-07  0.00000E+00  9.000E+00
      21     1     3     3   511   501 -1.344540991E-01  2.704675675E-02  3.752383729E+00  3.754889223E+00  0.000000000E+00  0.00000E+00  9.000E+00
      21     1     4     4   507   514  4.460394789E+00 -2.477037326E+00  8.012513566E+00  9.499010961E+00  1.685873940E-07  0.00000E+00  9.000E+00
#rwgt            1          17   19.208953452541937                1     5182825           0       11110           0
<weights>
0.12312E+02
</weights>
</event>
<event>
     15  10001  1.35503E+01  5.16566E+00 -1.00000E+00  4.97205E-01
      21    -1     0     0   507   501  0.000000000E+00  0.000000000E+00  9.997551843E+01  9.997551843E+01  0.000000000E+00  0.00000E+00  9.000E+00
      21    -1     0     0   501   511  0.000000000E+00  0.000000000E+00 -2.282226494E+03  2.282226494E+03  0.000000000E+00  0.00000E+00  9.000E+00
      -6     2     1     2     0   502  1.710378096E+02 -1.811757820E+02 -9.147467229E+02  9.636928754E+02  1.728114430E+02  0.00000E+00  9.000E+00
       6     2     1     2   507     0 -1.759092863E+02  1.828941427E+02 -2.380947384E+02  3.890866619E+02  1.740832605E+02  0.00000E+00  9.000E+00
     -24     2     3     3     0     0  1.887577242E+02 -1.177175393E+02 -7.288704498E+02  7.660860836E+02  7.841465039E+01  0.00000E+00  9.000E+00
      24     2     4     4     0     0 -1.543092235E+02  1.865060435E+02 -2.547838417E+02  3.607118361E+02  8.125504262E+01  0.00000E+00  9.000E+00
     -11     1     6     6     0     0 -8.937645221E+01  1.057651793E+02 -8.706155467E+01  1.635669210E+02  0.000000000E+00  0.00000E+00  9.000E+00
      12     1     6     6     0     0 -6.493277133E+01  8.074086420E+01 -1.677222871E+02  1.971449150E+02  3.814697266E-06  0.00000E+00  9.000E+00
      13     1     5     5     0     0  1.346886887E+02 -1.010247635E+02 -4.277047193E+02  4.596502720E+02  0.000000000E+00  0.00000E+00  9.000E+00
     -14     1     5     5     0     0  5.406903545E+01 -1.669277586E+01 -3.011657305E+02  3.064358116E+02  8.529922400E-06  0.00000E+00  9.000E+00
       5     1     4     4   512     0 -2.065748728E+01 -2.283783683E+00  1.551558112E+01  2.636746491E+01  4.750000000E+00  0.00000E+00  9.000E+00
      -5     1     3     3     0   513 -1.831094089E+01 -6.361311454E+01 -1.849535830E+02  1.965001508E+02  4.750000000E+00  0.00000E+00  9.000E+00
      21     1     1     2   502   511  4.871476639E+00 -1.718360668E+00 -1.029409515E+03  1.029422475E+03  0.000000000E+00  0.00000E+00  9.000E+00
      21     1     4     4   507   512 -9.425754633E-01 -1.328117096E+00  1.173522221E+00  2.007360936E+00  2.900946488E-07  0.00000E+00  9.000E+00
      21     1     3     3   513   502  5.910263698E-01  1.548718148E-01 -9.226901037E-01  1.106641078E+00  1.053671213E-08  0.00000E+00  9.000E+00
#rwgt            1          17   77.799224029962275                1     5191411           0       11011           0
<weights>
0.12901E+02
</weights>
</event>
<event>
     15  10001  1.35503E+01  2.83344E+01 -1.00000E+00  2.29317E-01
      21    -1     0     0   512   501  0.000000000E+00  0.000000000E+00  1.322943125E+03  1.322943125E+03  0.000000000E+00  0.00000E+00  9.000E+00
      21    -1     0     0   501   502  0.000000000E+00  0.000000000E+00 -5.275893027E+01  5.275893027E+01  0.000000000E+00  0.00000E+00  9.000E+00
      -6     2     1     2     0   502 -1.581758024E+01  2.929040014E+01  1.623891416E+01  1.019905591E+02  9.502761931E+01  0.00000E+00  9.000E+00
       6     2     1     2   507     0  1.946752016E+01 -1.192051845E+00  1.204124836E+03  1.216397310E+03  1.712465758E+02  0.00000E+00  9.000E+00
     -24     2     3     3     0     0 -3.869585396E+00  2.185937856E+01  1.685577361E+01  8.574724960E+01  8.109049012E+01  0.00000E+00  9.000E+00
      24     2     4     4     0     0  3.401729542E+01  5.573421239E+01  5.199449549E+02  5.296675618E+02  7.708106832E+01  0.00000E+00  9.000E+00
     -11     1     6     6     0     0 -1.706321284E+01  3.288327255E+01  3.167131934E+02  3.188725603E+02  0.000000000E+00  0.00000E+00  9.000E+00
      12     1     6     6     0     0  5.108050827E+01  2.285093984E+01  2.032317615E+02  2.107950015E+02  4.672030912E-06  0.00000E+00  9.000E+00
      13     1     5     5     0     0 -3.922707243E+01  1.039680317E+01 -7.555300273E+00  4.127879952E+01  0.000000000E+00  0.00000E+00  9.000E+00
     -14     1     5     5     0     0  3.535748704E+01  1.146257540E+01  2.441107389E+01  4.446845008E+01  1.469710828E-06  0.00000E+00  9.000E+00
       5     1     4     4   514     0 -1.114998869E+01 -4.778704147E+01  5.833039501E+02  5.853836215E+02  4.750000000E+00  0.00000E+00  9.000E+00
      -5     1     3     3     0   511 -7.245944248E+00  2.510318426E+00  1.436853647E+00  9.134136798E+00  4.750000000E+00  0.00000E+00  9.000E+00
      21     1     1     2   512   507 -3.649939929E+00 -2.809834829E+01  4.982044441E+01  5.731418602E+01  1.651812370E-06  0.00000E+00  9.000E+00
      21     1     3     3   511   502 -4.702050592E+00  4.920703149E+00 -2.053713098E+00  7.109172719E+00  4.460403188E-07  0.00000E+00  9.000E+00
      21     1     4     4   507   514 -3.399786564E+00 -9.139222764E+00  1.008759315E+02  1.013461271E+02  1.907348633E-06  0.00000E+00  9.000E+00
#rwgt            1          17   22.294364591984024                1     5203254           0       11110           0
<weights>
0.10106E+02
</weights>
</event>
<event>
     15  10001  1.35503E+01  3.00007E+01 -1.00000E+00  5.03012E-01
      21    -1     0     0   507   511  0.000000000E+00  0.000000000E+00  1.295340752E+02  1.295340752E+02  0.000000000E+00  0.00000E+00  9.000E+00
      21    -1     0     0   501   502  0.000000000E+00  0.000000000E+00 -6.085438864E+02  6.085438864E+02  0.000000000E+00  0.00000E+00  9.000E+00
      -6     2     1     2     0   502  1.601654818E+02  8.654641107E+01 -3.113171748E+02  4.004308211E+02  1.740206779E+02  0.00000E+00  9.000E+00
       6     2     1     2   507     0 -1.307023160E+02 -8.089294991E+01 -1.910358189E+02  2.996347224E+02  1.722193891E+02  0.00000E+00  9.000E+00
     -24     2     3     3     0     0  4.847865101E+01  9.529793331E+01 -1.276339711E+02  1.849956036E+02  8.062919495E+01  0.00000E+00  9.000E+00
      24     2     4     4     0     0 -8.266370904E+01 -8.162399971E+01 -2.058832978E+02  2.482591578E+02  7.582157358E+01  0.00000E+00  9.000E+00
     -11     1     6     6     0     0 -8.948149777E+00 -1.902964350E+01 -1.103042792E+02  1.122908310E+02  0.000000000E+00  0.00000E+00  9.000E+00
      12     1     6     6     0     0 -7.371555926E+01 -6.259435621E+01 -9.557901856E+01  1.359683268E+02  3.303624740E-06  0.00000E+00  9.000E+00
      13     1     5     5     0     0  8.731280010E+00  3.246645921E+00 -6.737327110E+01  6.801421630E+01  0.000000000E+00  0.00000E+00  9.000E+00
     -14     1     5     5     0     0  3.974737100E+01  9.205128739E+01 -6.026069999E+01  1.169813873E+02  1.348699152E-06  0.00000E+00  9.000E+00
       5     1     4     4   512     0 -2.166038817E+01 -3.006718150E+00  4.696679098E+00  2.286556503E+01  4.750000000E+00  0.00000E+00  9.000E+00
      -5     1     3     3     0   513  1.108794198E+02 -9.149890573E+00 -1.801485318E+02  2.117876820E+02  4.750000000E+00  0.00000E+00  9.000E+00
      21     1     1     2   501   511 -2.946316575E+01 -5.653461166E+00  2.334318257E+01  3.801241812E+01  0.000000000E+00  0.00000E+00  9.000E+00
      21     1     4     4   507   512 -2.637821880E+01  3.737767955E+00  1.015079978E+01  2.850999952E+01  1.278377210E-06  0.00000E+00  9.000E+00
      21     1     3     3   513   502  8.074109458E-01  3.983683367E-01 -3.534671906E+00  3.647535503E+00  7.300048300E-08  0.00000E+00  9.000E+00
#rwgt            1          17   12.216243366500562                1     5214584           0       11011           0
<weights>
0.15371E+02
</weights>
</event>
<event>
     14  10001 -1.35503E+01  1.48212E+02 -1.00000E+00  7.51014E-01
      21    -1     0     0   502   501  0.000000000E+00  0.000000000E+00  2.351327226E+02  2.351327226E+02  0.000000000E+00  0.00000E+00  9.000E+00
       2    -1     0     0   507     0  0.000000000E+00  0.000000000E+00 -7.360079695E+02  7.360079695E+02  0.000000000E+00  0.00000E+00  9.000E+00
      -6     2     1     2     0   501 -5.171751303E+01 -2.314050925E+02  4.548407536E+01  2.956906388E+02  1.707077466E+02  0.00000E+00  9.000E+00
       6     2     1     2   507     0  7.936489538E+01  8.579478705E+01 -1.633482854E+02  2.647625892E+02  1.725022730E+02  0.00000E+00  9.000E+00
     -24     2     3     3     0     0 -6.948700734E+01 -1.516886731E+02 -2.711414695E+01  1.863127304E+02  7.835406067E+01  0.00000E+00  9.000E+00
      24     2     4     4     0     0  9.378646849E+01  5.251091861E+01 -1.316731205E+02  1.876544042E+02  7.951771175E+01  0.00000E+00  9.000E+00
     -11     1     6     6     0     0  4.243360420E+01  5.656298456E+01 -1.121211793E+02  1.325561799E+02  0.000000000E+00  0.00000E+00  9.000E+00
      12     1     6     6     0     0  5.135286430E+01 -4.052065946E+00 -1.955194127E+01  5.509822427E+01  9.233911863E-07  0.00000E+00  9.000E+00
      13     1     5     5     0     0 -1.943134273E+01  4.463737146E+00  9.005667956E-01  1.995778170E+01  0.000000000E+00  0.00000E+00  9.000E+00
     -14     1     5     5     0     0 -5.005566461E+01 -1.561524103E+02 -2.801471375E+01  1.663549487E+02  2.676241913E-06  0.00000E+00  9.000E+00
       5     1     4     4   511     0 -5.080947776E+00 -9.253530986E+00 -3.149703280E+01  3.355695816E+01  4.750000000E+00  0.00000E+00  9.000E+00
      -5     1     3     3     0   501  1.776949431E+01 -7.971641937E+01  7.259822231E+01  1.093779083E+02  4.750000000E+00  0.00000E+00  9.000E+00
       2     1     1     2   502     0 -2.764738235E+01  1.456103054E+02 -3.830110369E+02  4.106874641E+02  0.000000000E+00  0.00000E+00  9.000E+00
      21     1     4     4   507   511 -9.340625332E+00  4.253739943E+01 -1.781320876E-01  4.355122688E+01  4.298717059E-07  0.00000E+00  9.000E+00
#rwgt            1          17  -31.177638667203158                1     5223712           0         110           0
<weights>
-.15914E+02
</weights>
</event>
<event>
     15  10001  1.35503E+01  1.45531E+01 -1.00000E+00  2.56297E-01
      21    -1     0     0   502   501  0.000000000E+00  0.000000000E+00  8.093922017E+01  8.093922017E+01  0.000000000E+00  0.00000E+00  9.000E+00
       2    -1     0     0   507     0  0.000000000E+00  0.000000000E+00 -1.496447150E+03  1.496447150E+03  0.000000000E+00  0.00000E+00  9.000E+00
      -6     2     1     2     0   501 -5.582127504E+01 -1.828822583E+01 -3.334464921E+01  1.818102159E+02  1.687975563E+02  0.00000E+00  9.000E+00
       6     2     1     2   507     0  5.273794973E+01  4.065476299E+00 -1.283244550E+03  1.295592612E+03  1.704283464E+02  0.00000E+00  9.000E+00
     -24     2     3     3     0     0 -2.178786044E+01 -5.901133331E+01 -6.139960397E+01  1.197810525E+02  8.136670606E+01  0.00000E+00  9.000E+00
      24     2     4     4     0     0 -1.823074426E+01 -3.013523875E+01 -8.647627836E+02  8.694004798E+02  8.247441823E+01  0.00000E+00  9.000E+00
     -11     1     6     6     0     0  1.145546951E+00  2.552623353E+01 -4.160005971E+02  4.167845938E+02  0.000000000E+00  0.00000E+00  9.000E+00
      12     1     6     6     0     0 -1.937629121E+01 -5.566147227E+01 -4.487621865E+02  4.526158860E+02  1.078959322E-05  0.00000E+00  9.000E+00
      13     1     5     5     0     0  1.373808994E+01 -1.591191369E+01  1.450543401E+01  2.554078559E+01  0.000000000E+00  0.00000E+00  9.000E+00
     -14     1     5     5     0     0 -3.552595038E+01 -4.309941962E+01 -7.590503798E+01  9.424026694E+01  2.861022949E-06  0.00000E+00  9.000E+00
       5     1     4     4   511     0  1.569369645E+01  9.442286734E+00 -1.344274316E+02  1.357525166E+02  4.750000000E+00  0.00000E+00  9.000E+00
      -5     1     3     3     0   512 -2.834033662E+01  4.036461966E+01  2.607775233E+01  5.599186429E+01  4.750000000E+00  0.00000E+00  9.000E+00
      21     1     4     4   507   511  5.527499755E+01  2.475842831E+01 -2.840543351E+02  2.904396158E+02  5.394796609E-06  0.00000E+00  9.000E+00
       2     1     1     2   502     0  3.083325310E+00  1.422274953E+01 -9.891873016E+01  9.998354203E+01  0.000000000E+00  0.00000E+00  9.000E+00
      21     1     3     3   512   501 -5.693077989E+00  3.584878186E-01  1.977202427E+00  6.037299061E+00  2.771776205E-07  0.00000E+00  9.000E+00
#rwgt            1          17   15.147676583376629                1     5232464           0      100111           0
<weights>
0.15335E+02
</weights>
</event>
<event>
     13  10001  1.35503E+01  1.47034E+02 -1.00000E+00  1.16738E-01
      21    -1     0     0   502   501  0.000000000E+00  0.000000000E+00  1.236286803E+03  1.236286803E+03  0.000000000E+00  0.00000E+00  9.000E+00
       2    -1     0     0   507     0  0.000000000E+00  0.000000000E+00 -1.397087058E+02  1.397087058E+02  0.000000000E+00  0.00000E+00  9.000E+00
      -6     2     1     2     0   501  1.317486267E+02  9.950064438E+01  3.401849417E+02  4.150190574E+02  1.710466151E+02  0.00000E+00  9.000E+00
       6     2     1     2   507     0 -2.443432946E+02 -1.940593755E+02  7.288048319E+02  8.113768910E+02  1.726652526E+02  0.00000E+00  9.000E+00
     -24     2     3     3     0     0  2.304907943E+01 -8.101859200E+00  1.176888951E+02  1.449802756E+02  8.106604788E+01  0.00000E+00  9.000E+00
      24     2     4     4     0     0 -1.890587037E+02 -8.960233697E+01  5.768741308E+02  6.188329757E+02  7.999197957E+01  0.00000E+00  9.000E+00
     -11     1     6     6     0     0 -1.186775547E+02 -8.693482049E+01  3.151097943E+02  3.477588352E+02  0.000000000E+00  0.00000E+00  9.000E+00
      12     1     6     6     0     0 -7.038114899E+01 -2.667516482E+00  2.617643365E+02  2.710741405E+02  3.814697266E-06  0.00000E+00  9.000E+00
      13     1     5     5     0     0  9.779568457E+00  4.136159224E+00  1.250396572E+02  1.254896953E+02  0.000000000E+00  0.00000E+00  9.000E+00
     -14     1     5     5     0     0  1.326951097E+01 -1.223801842E+01 -7.350762114E+00  1.949058029E+01  1.143415337E-06  0.00000E+00  9.000E+00
       5     1     4     4   507     0 -5.528459086E+01 -1.044570385E+02  1.519307011E+02  1.925439153E+02  4.750000000E+00  0.00000E+00  9.000E+00
      -5     1     3     3     0   501  1.086995473E+02  1.076025036E+02  2.224960466E+02  2.700387817E+02  4.750000000E+00  0.00000E+00  9.000E+00
       2     1     1     2   502     0  1.125946679E+02  9.455873109E+01  2.758832338E+01  1.495995603E+02  0.000000000E+00  0.00000E+00  9.000E+00
#rwgt            2          94   2.9318808573522401E-002           1     5237521           0           1           0
<weights>
0.13550E+02
</weights>
</event>
<event>
     15  10001  1.35503E+01  3.04781E+01 -1.00000E+00  6.59634E-01
      -1    -1     0     0     0   501  0.000000000E+00  0.000000000E+00  1.459476187E+03  1.459476187E+03  0.000000000E+00  0.00000E+00  9.000E+00
      21    -1     0     0   501   502  0.000000000E+00  0.000000000E+00 -4.580297365E+02  4.580297365E+02  0.000000000E+00  0.00000E+00  9.000E+00
      -6     2     1     2     0   502  1.466952338E+02  5.788350584E+01 -2.707932731E+02  3.577193138E+02  1.725228067E+02  0.00000E+00  9.000E+00
       6     2     1     2   507     0 -1.746843011E+02 -4.582001583E+01 -3.424363731E+01  2.529477948E+02  1.737696214E+02  0.00000E+00  9.000E+00
     -24     2     3     3     0     0  1.030402734E+02  7.543719689E+01 -1.002032725E+02  1.805799194E+02  7.912232834E+01  0.00000E+00  9.000E+00
      24     2     4     4     0     0 -1.639172119E+02  4.662295217E+00  1.096515945E+01  1.830875770E+02  8.068603827E+01  0.00000E+00  9.000E+00
     -11     1     6     6     0     0 -1.236774765E+02  2.544206025E+01 -2.052864010E+01  1.279251409E+02  0.000000000E+00  0.00000E+00  9.000E+00
      12     1     6     6     0     0 -4.023973545E+01 -2.077976503E+01  3.149379956E+01  5.516243608E+01  2.050954167E-06  0.00000E+00  9.000E+00
      13     1     5     5     0     0  6.690686625E+01  1.380131088E+01 -1.602669685E+01  7.017022122E+01  0.000000000E+00  0.00000E+00  9.000E+00
     -14     1     5     5     0     0  3.613340715E+01  6.163588600E+01 -8.417657568E+01  1.104096982E+02  2.697398305E-06  0.00000E+00  9.000E+00
       5     1     4     4   511     0 -8.994152684E+00 -5.023414898E+01 -4.234674501E+01  6.648438778E+01  4.750000000E+00  0.00000E+00  9.000E+00
      -5     1     3     3     0   513  4.357209959E+01 -1.764784329E+01 -1.672257364E+02  1.737727932E+02  4.750000000E+00  0.00000E+00  9.000E+00
      -1     1     1     2     0   507  2.798906729E+01 -1.206349001E+01  1.306483361E+03  1.306838815E+03  0.000000000E+00  0.00000E+00  9.000E+00
      21     1     4     4   507   511 -1.772936493E+00 -2.481620690E-01 -2.862051760E+00  3.375830046E+00  8.429369702E-08  0.00000E+00  9.000E+00
      21     1     3     3   513   502  8.286082518E-02  9.415223918E-02 -3.364264157E+00  3.366601235E+00  7.300048300E-08  0.00000E+00  9.000E+00
#rwgt            1          17   7.5841832662874875                1     5240407           0       11011           0
<weights>
0.12370E+02
</weights>
</event>
<event>
     13  10001  1.35503E+01  4.99118E+02 -1.00000E+00  9.88738E-02
       1    -1     0     0   507     0  0.000000000E+00  0.000000000E+00  2.343810139E+02  2.343810139E+02  0.000000000E+00  0.00000E+00  9.000E+00
      21    -1     0     0   511   502  0.000000000E+00  0.000000000E+00 -1.758400892E+03  1.758400892E+03  0.000000000E+00  0.00000E+00  9.000E+00
      -6     2     1     2     0   502  2.979448282E+02 -1.942448714E+02 -9.834974290E+02  1.059836220E+03  1.717073951E+02  0.00000E+00  9.000E+00
       6     2     1     2   507     0  1.697347749E+02  1.990324024E+01 -2.769114706E+02  3.684902285E+02  1.729134268E+02  0.00000E+00  9.000E+00
     -24     2     3     3     0     0  1.725308461E+02 -1.832465709E+02 -5.854010036E+02  6.422802884E+02  8.051978199E+01  0.00000E+00  9.000E+00
      24     2     4     4     0     0  1.149358885E+02  7.940241770E+01 -1.701053430E+02  2.344261339E+02  8.065222955E+01  0.00000E+00  9.000E+00
     -11     1     6     6     0     0  3.804807595E+01  3.446052247E+01 -1.238592035E+02  1.340756726E+02  0.000000000E+00  0.00000E+00  9.000E+00
      12     1     6     6     0     0  7.688781252E+01  4.494189523E+01 -4.624613954E+01  1.003504613E+02  2.023048729E-06  0.00000E+00  9.000E+00
      13     1     5     5     0     0  1.945360102E+01 -2.922729735E+01 -1.695432849E+02  1.731404140E+02  0.000000000E+00  0.00000E+00  9.000E+00
     -14     1     5     5     0     0  1.530772450E+02 -1.540192736E+02 -4.158577187E+02  4.691398744E+02  0.000000000E+00  0.00000E+00  9.000E+00
       5     1     4     4   507     0  5.479888647E+01 -5.949917746E+01 -1.068061276E+02  1.340640946E+02  4.750000000E+00  0.00000E+00  9.000E+00
      -5     1     3     3     0   502  1.254139821E+02 -1.099830050E+01 -3.980964254E+02  4.175559315E+02  4.750000000E+00  0.00000E+00  9.000E+00
       1     1     1     2   511     0 -4.676796031E+02  1.743416312E+02 -2.636109786E+02  5.644554576E+02  0.000000000E+00  0.00000E+00  9.000E+00
#rwgt            2          18   2.2171762977984406E-002           1     5254372           0           1           0
<weights>
0.13550E+02
</weights>
</event>
<event>
     15  10001 -1.35503E+01  9.85429E+01 -1.00000E+00  2.37062E-01
      21    -1     0     0   512   501  0.000000000E+00  0.000000000E+00  3.031768009E+02  3.031768009E+02  0.000000000E+00  0.00000E+00  9.000E+00
      21    -1     0     0   507   502  0.000000000E+00  0.000000000E+00 -1.746545691E+03  1.746545691E+03  0.000000000E+00  0.00000E+00  9.000E+00
      -6     2     1     2     0   501 -2.666016386E+02 -2.618324457E+02 -1.803055989E+02  4.495512364E+02  1.730709157E+02  0.00000E+00  9.000E+00
       6     2     1     2   507     0  1.902385273E+02  1.995477423E+02 -1.396812555E+03  1.434040059E+03  1.713930569E+02  0.00000E+00  9.000E+00
     -24     2     3     3     0     0 -1.242636259E+02 -1.154779156E+02 -1.622099265E+01  1.873206669E+02  7.777733555E+01  0.00000E+00  9.000E+00
      24     2     4     4     0     0  1.784255454E+02  1.633770171E+02 -1.269630241E+03  1.294961802E+03  8.023337843E+01  0.00000E+00  9.000E+00
     -11     1     6     6     0     0  4.194807838E+01 -4.393872534E-02 -2.030005325E+02  2.072893133E+02  0.000000000E+00  0.00000E+00  9.000E+00
      12     1     6     6     0     0  1.364774670E+02  1.634209558E+02 -1.066629709E+03  1.087672489E+03  2.157918644E-05  0.00000E+00  9.000E+00
      13     1     5     5     0     0 -1.141423534E+02 -7.600486600E+01 -3.635319606E+01  1.418688526E+02  0.000000000E+00  0.00000E+00  9.000E+00
     -14     1     5     5     0     0 -1.012127252E+01 -3.947304960E+01  2.013220341E+01  4.545181422E+01  6.743495762E-07  0.00000E+00  9.000E+00
       5     1     4     4   513     0 -1.789805228E+00  4.006331368E+01 -1.075252697E+02  1.148586898E+02  4.750000000E+00  0.00000E+00  9.000E+00
      -5     1     3     3     0   511 -1.250371375E+02 -1.308095122E+02 -1.409226326E+02  2.294061139E+02  4.750000000E+00  0.00000E+00  9.000E+00
      21     1     1     2   512   502  7.636311135E+01  6.228470338E+01  1.337492631E+02  1.661311965E+02  6.325959759E-06  0.00000E+00  9.000E+00
      21     1     4     4   507   513  1.360278711E+01 -3.892588439E+00 -1.965704360E+01  2.421956699E+01  4.768371582E-07  0.00000E+00  9.000E+00
      21     1     3     3   511   501 -1.730087521E+01 -1.554501793E+01 -2.316197359E+01  3.282445561E+01  5.840038640E-07  0.00000E+00  9.000E+00
#rwgt            1          17  -23.202882579847422                1     5260330           0       11011           0
<weights>
-.13381E+02
</weights>
</event>
<event>
     15  10001  1.35503E+01  3.23076E+01 -1.00000E+00  2.89748E-01
      21    -1     0     0   507   511  0.000000000E+00  0.000000000E+00  1.112568405E+03  1.112568405E+03  0.000000000E+00  0.00000E+00  9.000E+00
      21    -1     0     0   501   502  0.000000000E+00  0.000000000E+00 -5.183777374E+02  5.183777374E+02  0.000000000E+00  0.00000E+00  9.000E+00
      -6     2     1     2     0   502 -9.445715200E+01 -1.885045013E+00 -3.743519947E+02  4.229476272E+02  1.726834459E+02  0.00000E+00  9.000E+00
       6     2     1     2   507     0  8.079475051E+01 -2.739153190E+01 -4.222311046E+01  1.967165434E+02  1.721526057E+02  0.00000E+00  9.000E+00
     -24     2     3     3     0     0 -7.463236462E+01  5.526940647E+01 -3.091837219E+02  3.333842625E+02  8.322136425E+01  0.00000E+00  9.000E+00
      24     2     4     4     0     0  3.404688847E+01  4.863748268E+01 -3.133485922E+00  9.875943131E+01  7.885943953E+01  0.00000E+00  9.000E+00
     -11     1     6     6     0     0 -5.837054335E+00  3.306457843E+01  2.968150447E+01  4.481438673E+01  0.000000000E+00  0.00000E+00  9.000E+00
      12     1     6     6     0     0  3.988394280E+01  1.557290424E+01 -3.281499039E+01  5.394504458E+01  9.536743164E-07  0.00000E+00  9.000E+00
      13     1     5     5     0     0 -5.094632823E+01  9.050433698E+00 -6.177241901E+01  8.058083184E+01  0.000000000E+00  0.00000E+00  9.000E+00
     -14     1     5     5     0     0 -2.368603639E+01  4.621897277E+01 -2.474113029E+02  2.528034307E+02  1.175768662E-05  0.00000E+00  9.000E+00
       5     1     4     4   513     0  4.634478250E+01 -7.191819887E+01 -3.732730653E+01  9.346633890E+01  4.750000000E+00  0.00000E+00  9.000E+00
      -5     1     3     3     0   512 -1.661031137E+01 -5.058287451E+01 -5.242619244E+01  7.487054021E+01  4.750000000E+00  0.00000E+00  9.000E+00
      21     1     1     2   501   511  1.366240149E+01  2.927657691E+01  1.010765772E+03  1.011281971E+03  1.078959322E-05  0.00000E+00  9.000E+00
      21     1     3     3   512   502 -3.214476011E+00 -6.571576967E+00 -1.274208033E+01  1.469282447E+01  5.057621821E-07  0.00000E+00  9.000E+00
      21     1     4     4   507   513  4.030795426E-01 -4.110815702E+00 -1.762318006E+00  4.490773164E+00  9.884312124E-08  0.00000E+00  9.000E+00
#rwgt            1          17   20.824097236653394                1     5262757           0       11110           0
<weights>
0.21251E+02
</weights>
</event>
<event>
     13  10001  1.35503E+01  6.23787E+01 -1.00000E+00  1.33807E-01
      21    -1     0     0   512   501  0.000000000E+00  0.000000000E+00  2.032293768E+02  2.032293768E+02  0.000000000E+00  0.00000E+00  9.000E+00
      21    -1     0     0   501   502  0.000000000E+00  0.000000000E+00 -7.641525145E+02  7.641525145E+02  0.000000000E+00  0.00000E+00  9.000E+00
      -6     2     1     2     0   502 -3.357469693E+01  1.983904320E+02 -5.226845219E+02  5.858886210E+02  1.719893691E+02  0.00000E+00  9.000E+00
       6     2     1     2   507     0 -2.224397342E+01 -1.705447400E+02 -1.257512955E+02  2.740243183E+02  1.723242178E+02  0.00000E+00  9.000E+00
     -24     2     3     3     0     0 -1.839406062E+01  2.073310550E+02 -3.699976338E+02  4.321152984E+02  8.062799953E+01  0.00000E+00  9.000E+00
      24     2     4     4     0     0  1.736756312E+00 -1.765210955E+02 -1.459896592E+02  2.417296425E+02  7.718501149E+01  0.00000E+00  9.000E+00
     -11     1     6     6     0     0  3.743936334E+01 -1.124214254E+02 -1.007314388E+02  1.555220421E+02  0.000000000E+00  0.00000E+00  9.000E+00
      12     1     6     6     0     0 -3.570260703E+01 -6.409967004E+01 -4.525822038E+01  8.620760036E+01  6.743495762E-07  0.00000E+00  9.000E+00
      13     1     5     5     0     0 -4.318429655E+01  9.474957014E+01 -1.362110162E+02  1.714520499E+02  0.000000000E+00  0.00000E+00  9.000E+00
     -14     1     5     5     0     0  2.479023593E+01  1.125814848E+02 -2.337866176E+02  2.606632485E+02  2.697398305E-06  0.00000E+00  9.000E+00
       5     1     4     4   507     0 -2.398072974E+01  5.976355502E+00  2.023836370E+01  3.229467586E+01  4.750000000E+00  0.00000E+00  9.000E+00
      -5     1     3     3     0   502 -1.518063631E+01 -8.940622962E+00 -1.526868881E+02  1.537733226E+02  4.750000000E+00  0.00000E+00  9.000E+00
      21     1     1     2   512   507  5.581867035E+01 -2.784569203E+01  8.751267965E+01  1.074689519E+02  2.861022949E-06  0.00000E+00  9.000E+00
#rwgt            2         113   9.9158027332443730                1     5272664           0           1           0
<weights>
0.13550E+02
</weights>
</event>
<event>
     14  10001  1.35503E+01  3.04435E+01 -1.00000E+00  7.44077E-01
      21    -1     0     0   511   501  0.000000000E+00  0.000000000E+00  3.732960099E+02  3.732960099E+02  0.000000000E+00  0.00000E+00  9.000E+00
      21    -1     0     0   507   502  0.000000000E+00  0.000000000E+00 -2.781862234E+02  2.781862234E+02  0.000000000E+00  0.00000E+00  9.000E+00
      -6     2     1     2     0   501  1.229430325E+00  3.736952200E+01  2.300234359E+02  2.901328091E+02  1.728243999E+02  0.00000E+00  9.000E+00
       6     2     1     2   507     0  2.460814439E+01 -5.347011233E+01 -1.476032491E+02  3.283670771E+02  2.873562328E+02  0.00000E+00  9.000E+00
     -24     2     3     3     0     0 -2.483850151E+01 -6.410966383E+00  4.483360054E+01  9.800236945E+01  8.328481874E+01  0.00000E+00  9.000E+00
      24     2     4     4     0     0  1.180099853E+02 -8.723461494E+01 -2.393305857E+01  1.694704608E+02  8.130935437E+01  0.00000E+00  9.000E+00
     -11     1     6     6     0     0  3.414273266E+01 -3.628539799E+01  2.933177383E+01  5.781616778E+01  0.000000000E+00  0.00000E+00  9.000E+00
      12     1     6     6     0     0  8.386725265E+01 -5.094921695E+01 -5.326483240E+01  1.116542930E+02  3.371747881E-06  0.00000E+00  9.000E+00
      13     1     5     5     0     0 -3.112346978E+01 -3.648065035E+01  4.707923876E+01  6.720091476E+01  0.000000000E+00  0.00000E+00  9.000E+00
     -14     1     5     5     0     0  6.284968266E+00  3.006968397E+01 -2.245638227E+00  3.080145469E+01  1.067072975E-06  0.00000E+00  9.000E+00
       5     1     4     4   513     0 -8.966023924E+01  3.296752097E+01 -1.161833990E+02  1.504890715E+02  4.750000000E+00  0.00000E+00  9.000E+00
      -5     1     3     3     0   501  2.606793184E+01  4.378048838E+01  1.851898353E+02  1.921304397E+02  4.750000000E+00  0.00000E+00  9.000E+00
      21     1     1     2   511   502 -2.583757472E+01  1.610059033E+01  1.268959978E+01  3.298234708E+01  5.840038640E-07  0.00000E+00  9.000E+00
      21     1     4     4   507   513 -3.741601687E+00  7.969816439E-01 -7.486791555E+00  8.407544869E+00  1.192092896E-07  0.00000E+00  9.000E+00
#rwgt            1          17   22.710025250427091                1     5273679           0         110           0
<weights>
0.13144E+02
</weights>
</event>
<event>
     15  10001  1.35503E+01  7.07559E+01 -1.00000E+00  3.57030E-01
      21    -1     0     0   512   501  0.000000000E+00  0.000000000E+00  1.043308433E+03  1.043308433E+03  0.000000000E+00  0.00000E+00  9.000E+00
      21    -1     0     0   507   502  0.000000000E+00  0.000000000E+00 -1.132836306E+02  1.132836306E+02  0.000000000E+00  0.00000E+00  9.000E+00
      -6     2     1     2     0   501  6.643752946E+01 -2.185328942E+02  5.358619425E+02  6.027411409E+02  1.548492504E+02  0.00000E+00  9.000E+00
       6     2     1     2   507     0 -3.504954219E+00  1.861927023E+02  4.093844823E+02  4.814762389E+02  1.718828299E+02  0.00000E+00  9.000E+00
     -24     2     3     3     0     0  5.558533448E+01 -2.122786295E+02  3.789314900E+02  4.450858096E+02  7.975185142E+01  0.00000E+00  9.000E+00
      24     2     4     4     0     0  3.906565443E+01  4.572767942E+01  2.050712446E+02  2.288715879E+02  8.191973140E+01  0.00000E+00  9.000E+00
     -11     1     6     6     0     0 -2.374185583E+01  2.196282562E+00  3.420505539E+01  4.169514587E+01  0.000000000E+00  0.00000E+00  9.000E+00
      12     1     6     6     0     0  6.280751026E+01  4.353139685E+01  1.708661892E+02  1.871764421E+02  1.907348633E-06  0.00000E+00  9.000E+00
      13     1     5     5     0     0  7.510265294E+01 -1.708018498E+02  2.863013750E+02  3.417340453E+02  0.000000000E+00  0.00000E+00  9.000E+00
     -14     1     5     5     0     0 -1.951731846E+01 -4.147677965E+01  9.263011500E+01  1.033517643E+02  0.000000000E+00  0.00000E+00  9.000E+00
       5     1     4     4   511     0 -3.724409001E+01  1.026737138E+02  1.375527400E+02  1.757052433E+02  4.750000000E+00  0.00000E+00  9.000E+00
      -5     1     3     3     0   514  9.228235992E+00 -7.014104694E+00  1.489560519E+02  1.494818581E+02  4.750000000E+00  0.00000E+00  9.000E+00
      21     1     1     2   512   502 -6.293257525E+01  3.234019181E+01 -1.522162261E+01  7.237468362E+01  1.634515429E-06  0.00000E+00  9.000E+00
      21     1     4     4   507   511 -5.326518642E+00  3.779130915E+01  6.676049767E+01  7.689940765E+01  0.000000000E+00  0.00000E+00  9.000E+00
      21     1     3     3   514   501  1.623958993E+00  7.598400206E-01  7.974400625E+00  8.173473251E+00  1.460009660E-07  0.00000E+00  9.000E+00
#rwgt            1          17   88.910311997468412                1     5285000           0       11011           0
<weights>
0.16242E+02
</weights>
</event>
<event>
     15  10001 -1.35503E+01  1.39193E+01 -1.00000E+00  1.36492E-01
      21    -1     0     0   507   501  0.000000000E+00  0.000000000E+00  2.758127074E+02  2.758127074E+02  0.000000000E+00  0.00000E+00  9.000E+00
      21    -1     0     0   501   512  0.000000000E+00  0.000000000E+00 -2.047916605E+02  2.047916605E+02  0.000000000E+00  0.00000E+00  9.000E+00
      -6     2     1     2     0   502 -7.365325706E+01  5.851780175E+01 -8.727219288E+01  2.155845803E+02  1.732372367E+02  0.00000E+00  9.000E+00
       6     2     1     2   507     0  6.624577112E+01 -4.673319896E+01  1.622268471E+02  2.505553146E+02  1.728812358E+02  0.00000E+00  9.000E+00
     -24     2     3     3     0     0 -6.434670491E+01  6.725915928E+00 -5.560236572E+01  1.170223266E+02  8.010533985E+01  0.00000E+00  9.000E+00
      24     2     4     4     0     0  9.467650599E+00  5.295510479E+00  1.533164944E+02  1.726257996E+02  7.858778780E+01  0.00000E+00  9.000E+00
     -11     1     6     6     0     0 -1.304138256E+01 -2.741072216E+01  1.088969657E+02  1.130485493E+02  0.000000000E+00  0.00000E+00  9.000E+00
      12     1     6     6     0     0  2.250903316E+01  3.270623264E+01  4.441952867E+01  5.957725031E+01  0.000000000E+00  0.00000E+00  9.000E+00
      13     1     5     5     0     0 -4.582157498E+01  7.695896840E+00  1.111473791E+01  4.777427090E+01  0.000000000E+00  0.00000E+00  9.000E+00
     -14     1     5     5     0     0 -1.852512993E+01 -9.699809120E-01 -6.671710363E+01  6.924805570E+01  2.132480600E-06  0.00000E+00  9.000E+00
       5     1     4     4   513     0  5.265717931E+01 -4.776728142E+01  9.837648102E+00  7.192936485E+01  4.750000000E+00  0.00000E+00  9.000E+00
      -5     1     3     3     0   511  1.516513448E+01  5.677160029E+01 -4.110169126E+01  7.186729039E+01  4.750000000E+00  0.00000E+00  9.000E+00
      21     1     3     3   511   502 -2.447168663E+01 -4.979714473E+00  9.431864106E+00  2.669496326E+01  3.576278687E-07  0.00000E+00  9.000E+00
      21     1     1     2   502   512  7.407485941E+00 -1.178460279E+01 -3.933607366E+00  1.446447295E+01  2.107342426E-07  0.00000E+00  9.000E+00
      21     1     4     4   507   513  4.120941213E+00 -4.261428016E+00 -9.272953857E-01  6.000150161E+00  2.488984628E-07  0.00000E+00  9.000E+00
#rwgt            1          17  -24.877792647348535                1     5289422           0      110110           0
<weights>
-.14011E+02
</weights>
</event>
<event>
     14  10001 -1.35503E+01  2.25197E+01 -1.00000E+00  1.76753E-01
       4    -1     0     0   512     0  0.000000000E+00  0.000000000E+00  2.187434293E+03  2.187434293E+03  0.000000000E+00  0.00000E+00  9.000E+00
      -4    -1     0     0     0   502  0.000000000E+00  0.000000000E+00 -2.677190202E+01  2.677190202E+01  0.000000000E+00  0.00000E+00  9.000E+00
      -6     2     1     2     0   502  9.684729955E+01 -6.507632856E+01  6.473281700E+02  6.798408648E+02  1.718589942E+02  0.00000E+00  9.000E+00
       6     2     1     2   507     0 -1.011916540E+02  4.297967582E+01  1.227164560E+03  1.247310962E+03  1.943316107E+02  0.00000E+00  9.000E+00
     -24     2     3     3     0     0  3.270754162E+01 -6.315938396E+01  5.520876996E+02  5.623237347E+02  7.967599122E+01  0.00000E+00  9.000E+00
      24     2     4     4     0     0 -1.305418870E+02 -1.211951358E+01  7.142955304E+02  7.306345052E+02  8.012870014E+01  0.00000E+00  9.000E+00
     -11     1     6     6     0     0 -9.494880467E+01  9.753104972E-01  3.014619227E+02  3.160625217E+02  0.000000000E+00  0.00000E+00  9.000E+00
      12     1     6     6     0     0 -3.559308231E+01 -1.309482407E+01  4.128336077E+02  4.145719836E+02  5.394796609E-06  0.00000E+00  9.000E+00
      13     1     5     5     0     0  5.249429088E+01 -1.889183888E+01  2.338299824E+02  2.403934542E+02  0.000000000E+00  0.00000E+00  9.000E+00
     -14     1     5     5     0     0 -1.978674926E+01 -4.426754507E+01  3.182577172E+02  3.219302806E+02  3.814697266E-06  0.00000E+00  9.000E+00
       5     1     4     4   507     0  2.935023298E+01  5.509918940E+01  5.128690296E+02  5.166764567E+02  4.750000000E+00  0.00000E+00  9.000E+00
      -5     1     3     3     0   511  5.544581546E+01  3.673906155E+00  9.012291063E+01  1.059831947E+02  4.750000000E+00  0.00000E+00  9.000E+00
      21     1     1     2   512   507  4.344354458E+00  2.209665273E+01  2.861696611E+02  2.870543684E+02  0.000000000E+00  0.00000E+00  9.000E+00
      21     1     3     3   511   502  8.693942468E+00 -5.590850755E+00  5.117559772E+00  1.153393540E+01  6.049210766E-07  0.00000E+00  9.000E+00
#rwgt            1          12 -0.11825465755434902                1     5296658           0         111           0
<weights>
-.22359E+02
</weights>
</event>
<event>
     15  10001  1.35503E+01  3.96411E+01 -1.00000E+00  3.18057E-01
      21    -1     0     0   502   501  0.000000000E+00  0.000000000E+00  1.121409991E+02  1.121409991E+02  0.000000000E+00  0.00000E+00  9.000E+00
      21    -1     0     0   511   502  0.000000000E+00  0.000000000E+00 -6.266243676E+02  6.266243676E+02  0.000000000E+00  0.00000E+00  9.000E+00
      -6     2     1     2     0   501  1.315494866E+01  3.515018350E+01 -7.666117715E+01  1.920420321E+02  1.720308633E+02  0.00000E+00  9.000E+00
       6     2     1     2   507     0  2.315763665E+01 -1.925009931E+01 -4.658483567E+02  4.981756007E+02  1.739465298E+02  0.00000E+00  9.000E+00
     -24     2     3     3     0     0 -4.834451464E+01  3.483117147E+01 -8.074823790E+01  1.282014558E+02  7.978052856E+01  0.00000E+00  9.000E+00
      24     2     4     4     0     0 -1.051117975E+01  4.061795484E+00 -4.431118726E+02  4.504635714E+02  8.026402985E+01  0.00000E+00  9.000E+00
     -11     1     6     6     0     0  1.896927580E+01  1.420249765E+01 -4.265841685E+01  4.879841075E+01  0.000000000E+00  0.00000E+00  9.000E+00
      12     1     6     6     0     0 -2.948045555E+01 -1.014070217E+01 -4.004534557E+02  4.016651607E+02  5.394796609E-06  0.00000E+00  9.000E+00
      13     1     5     5     0     0  7.873865385E+00  3.220500834E+01 -5.936713162E+01  6.799718109E+01  0.000000000E+00  0.00000E+00  9.000E+00
     -14     1     5     5     0     0 -5.621838003E+01  2.626163135E+00 -2.138110627E+01  6.020427469E+01  9.536743164E-07  0.00000E+00  9.000E+00
       5     1     4     4   512     0  2.428602262E+01 -1.850675393E+01 -2.004211500E+01  3.683150430E+01  4.750000000E+00  0.00000E+00  9.000E+00
      -5     1     3     3     0   514  6.066371283E+01  2.419375318E-01  6.585251357E+00  6.120516827E+01  4.750000000E+00  0.00000E+00  9.000E+00
      21     1     1     2   511   507 -3.631258531E+01 -1.590008419E+01  2.802616531E+01  4.854773394E+01  1.215700987E-06  0.00000E+00  9.000E+00
      21     1     4     4   507   512  9.382793786E+00 -4.805140863E+00 -2.694369079E+00  1.088052493E+01  2.795705652E-07  0.00000E+00  9.000E+00
      21     1     3     3   514   501  8.357504724E-01  7.707449332E-02 -2.498190610E+00  2.635408062E+00  2.980232239E-08  0.00000E+00  9.000E+00
#rwgt            1          17   9.4973761197057449                1     5298422           0       11011           0
<weights>
0.18814E+02
</weights>
</event>
<event>
     15  10001  1.35503E+01  9.27364E+01 -1.00000E+00  1.63260E-01
      21    -1     0     0   502   501  0.000000000E+00  0.000000000E+00  1.538407658E+03  1.538407658E+03  0.000000000E+00  0.00000E+00  9.000E+00
      21    -1     0     0   507   512  0.000000000E+00  0.000000000E+00 -9.916268435E+01  9.916268435E+01  0.000000000E+00  0.00000E+00  9.000E+00
      -6     2     1     2     0   501 -7.400762709E+01 -8.424712861E+01  6.903194329E+02  7.249516417E+02  1.908906905E+02  0.00000E+00  9.000E+00
       6     2     1     2   507     0  1.571401006E+02  4.314920683E+01  1.022906576E+02  2.593678152E+02  1.739351019E+02  0.00000E+00  9.000E+00
     -24     2     3     3     0     0 -4.574597949E+01 -1.028541268E+02  2.999251772E+02  3.300969306E+02  7.960656786E+01  0.00000E+00  9.000E+00
      24     2     4     4     0     0  6.378923934E+00  2.041384458E+01  4.782086682E+01  9.633305401E+01  8.084433357E+01  0.00000E+00  9.000E+00
     -11     1     6     6     0     0  1.753895880E+01  1.563562302E+01  6.846460626E+01  7.238432215E+01  0.000000000E+00  0.00000E+00  9.000E+00
      12     1     6     6     0     0 -1.116003487E+01  4.778221558E+00 -2.064373944E+01  2.394873186E+01  1.450243599E-06  0.00000E+00  9.000E+00
      13     1     5     5     0     0  2.312850035E+00  1.129687646E+01  4.808660424E+01  4.944987563E+01  0.000000000E+00  0.00000E+00  9.000E+00
     -14     1     5     5     0     0 -4.805882952E+01 -1.141510033E+02  2.518385730E+02  2.806470550E+02  2.697398305E-06  0.00000E+00  9.000E+00
       5     1     4     4   513     0  1.082359781E+02  1.651186380E+01  3.019446430E+01  1.136746971E+02  4.750000000E+00  0.00000E+00  9.000E+00
      -5     1     3     3     0   511 -8.020718435E+00  2.897304232E+01  3.039226042E+02  3.054427622E+02  4.750000000E+00  0.00000E+00  9.000E+00
      21     1     1     2   502   512 -8.313247352E+01  4.109792177E+01  6.466348834E+02  6.532508858E+02  1.078959322E-05  0.00000E+00  9.000E+00
      21     1     3     3   511   501 -2.024092917E+01 -1.036604412E+01  8.647165149E+01  8.941194885E+01  9.536743164E-07  0.00000E+00  9.000E+00
      21     1     4     4   507   513  4.252519862E+01  6.223498453E+00  2.427532651E+01  4.936006409E+01  5.840038640E-07  0.00000E+00  9.000E+00
#rwgt            1          17   98.961060677617397                1     5306045           0       11110           0
<weights>
0.13389E+02
</weights>
</event>
<event>
     14  10001  1.35503E+01  7.85856E+00 -1.00000E+00  1.61104E-01
      21    -1     0     0   507   501  0.000000000E+00  0.000000000E+00  1.582442996E+03  1.582442996E+03  0.000000000E+00  0.00000E+00  9.000E+00
      21    -1     0     0   501   512  0.000000000E+00  0.000000000E+00 -3.354027884E+01  3.354027884E+01  0.000000000E+00  0.00000E+00  9.000E+00
      -6     2     1     2     0   502  4.364218384E+01  1.181587737E+02  4.995770706E+02  5.435920662E+02  1.733463268E+02  0.00000E+00  9.000E+00
       6     2     1     2   507     0 -4.384396417E+01 -1.103028049E+02  1.036168239E+03  1.057065598E+03  1.722035347E+02  0.00000E+00  9.000E+00
     -24     2     3     3     0     0  6.237362771E+01  8.379672186E+01  4.254749665E+02  4.453307352E+02  7.986336193E+01  0.00000E+00  9.000E+00
      24     2     4     4     0     0  1.063145625E+01  4.157375650E+00  3.783974889E+02  3.871748410E+02  8.117503471E+01  0.00000E+00  9.000E+00
     -11     1     6     6     0     0 -2.471163469E+00  1.971878112E+01  1.997978184E+01  2.818028850E+01  0.000000000E+00  0.00000E+00  9.000E+00
      12     1     6     6     0     0  1.310261972E+01 -1.556140547E+01  3.584177071E+02  3.589945525E+02  5.394796609E-06  0.00000E+00  9.000E+00
      13     1     5     5     0     0 -1.649990786E+01  3.492191393E+01  1.322733567E+02  1.377970533E+02  0.000000000E+00  0.00000E+00  9.000E+00
     -14     1     5     5     0     0  7.887353556E+01  4.887480793E+01  2.932016099E+02  3.075336819E+02  6.607249480E-06  0.00000E+00  9.000E+00
       5     1     4     4   507     0 -5.447542042E+01 -1.144601805E+02  6.577707497E+02  6.698907568E+02  4.750000000E+00  0.00000E+00  9.000E+00
      -5     1     3     3     0   511 -2.550402547E+01  3.743677344E+01  3.238573587E+01  5.588707998E+01  4.750000000E+00  0.00000E+00  9.000E+00
      21     1     3     3   511   502  6.772581600E+00 -3.074721594E+00  4.171636818E+01  4.237425100E+01  9.536743164E-07  0.00000E+00  9.000E+00
      21     1     1     2   502   512  2.017803340E-01 -7.855968815E+00  1.315740758E+01  1.532561044E+01  1.685873940E-07  0.00000E+00  9.000E+00
#rwgt            1          17   10.648762110065890                1     5310586           0        1101           0
<weights>
0.77058E+01
</weights>
</event>
<event>
     13  10001  1.35503E+01  9.97878E+01 -1.00000E+00  7.48582E-01
      21    -1     0     0   502   512  0.000000000E+00  0.000000000E+00  1.396730701E+02  1.396730701E+02  0.000000000E+00  0.00000E+00  9.000E+00
      21    -1     0     0   507   502  0.000000000E+00  0.000000000E+00 -5.961615415E+02  5.961615415E+02  0.000000000E+00  0.00000E+00  9.000E+00
      -6     2     1     2     0   501  1.644496359E+01 -1.208483538E+01 -2.384671165E+02  2.950237230E+02  1.724991346E+02  0.00000E+00  9.000E+00
       6     2     1     2   507     0 -3.672423829E+00  1.110518540E+02 -2.612398158E+02  3.320660316E+02  1.722660937E+02  0.00000E+00  9.000E+00
     -24     2     3     3     0     0  6.736833085E+01 -6.003628658E+00 -2.115073459E+02  2.368897215E+02  8.250361936E+01  0.00000E+00  9.000E+00
      24     2     4     4     0     0 -6.927443315E+01  6.405846637E+01 -1.677876973E+02  2.085028371E+02  8.011421528E+01  0.00000E+00  9.000E+00
     -11     1     6     6     0     0 -2.416149461E+01 -2.717408086E+00 -2.282304234E+00  2.442070927E+01  0.000000000E+00  0.00000E+00  9.000E+00
      12     1     6     6     0     0 -4.511293854E+01  6.677587445E+01 -1.655053931E+02  1.840821278E+02  3.303624740E-06  0.00000E+00  9.000E+00
      13     1     5     5     0     0 -7.075143043E+00  2.415526150E+00 -1.124188569E+02  1.126671727E+02  0.000000000E+00  0.00000E+00  9.000E+00
     -14     1     5     5     0     0  7.444347389E+01 -8.419154808E+00 -9.908848903E+01  1.242225488E+02  1.907348633E-06  0.00000E+00  9.000E+00
       5     1     4     4   507     0  6.560200932E+01  4.699338763E+01 -9.345211844E+01  1.235631946E+02  4.750000000E+00  0.00000E+00  9.000E+00
      -5     1     3     3     0   501 -5.092336726E+01 -6.081206724E+00 -2.695977058E+01  5.813400156E+01  4.750000000E+00  0.00000E+00  9.000E+00
      21     1     1     2   501   512 -1.277253976E+01 -9.896701861E+01  4.321846094E+01  1.087448569E+02  4.768371582E-07  0.00000E+00  9.000E+00
#rwgt            1          17   16.410192370386905                1     5318649           0           1           0
<weights>
0.16734E+02
</weights>
</event>
<event>
     13  10001  1.35503E+01  3.42588E+01 -1.00000E+00  1.49141E-01
      -2    -1     0     0     0   511  0.000000000E+00  0.000000000E+00  1.321381560E+01  1.321381560E+01  0.000000000E+00  0.00000E+00  9.000E+00
       2    -1     0     0   507     0  0.000000000E+00  0.000000000E+00 -3.022045691E+03  3.022045691E+03  0.000000000E+00  0.00000E+00  9.000E+00
      -6     2     1     2     0   501 -4.434928691E+01 -2.419632906E+00 -1.251226735E+03  1.263882622E+03  1.727953289E+02  0.00000E+00  9.000E+00
       6     2     1     2   507     0  2.805334980E+01  3.255441169E+01 -1.612914477E+03  1.622685760E+03  1.725374909E+02  0.00000E+00  9.000E+00
     -24     2     3     3     0     0 -2.824683436E+01 -6.688018631E+01 -8.461575808E+02  8.533731408E+02  8.361951242E+01  0.00000E+00  9.000E+00
      24     2     4     4     0     0  4.210228472E+01 -2.370242479E+01 -1.356077389E+03  1.359341771E+03  8.080692179E+01  0.00000E+00  9.000E+00
     -11     1     6     6     0     0 -2.359409797E+01 -1.480051123E+01 -3.984556724E+02  3.994279153E+02  0.000000000E+00  0.00000E+00  9.000E+00
      12     1     6     6     0     0  6.569638268E+01 -8.901913562E+00 -9.576217165E+02  9.599138559E+02  1.525878906E-05  0.00000E+00  9.000E+00
      13     1     5     5     0     0 -3.152308690E+01  9.969996081E+00 -3.023848415E+02  3.041869461E+02  0.000000000E+00  0.00000E+00  9.000E+00
     -14     1     5     5     0     0  3.276252543E+00 -7.685018239E+01 -5.437727393E+02  5.491861946E+02  7.629394531E-06  0.00000E+00  9.000E+00
       5     1     4     4   507     0 -1.404893491E+01  5.625683648E+01 -2.568370879E+02  2.633439888E+02  4.750000000E+00  0.00000E+00  9.000E+00
      -5     1     3     3     0   501 -1.610245255E+01  6.446055340E+01 -4.050691547E+02  4.105094816E+02  4.750000000E+00  0.00000E+00  9.000E+00
      21     1     1     2   501   511  1.629593710E+01 -3.013477878E+01 -1.446906630E+02  1.486911242E+02  3.303624740E-06  0.00000E+00  9.000E+00
#rwgt            2          24   4.8228585496166030                1     5331679           0           1           0
<weights>
0.13550E+02
</weights>
</event>
<event>
     15  10001  1.35503E+01  9.94938E+01 -1.00000E+00  1.60955E-01
      21    -1     0     0   512   501  0.000000000E+00  0.000000000E+00  2.491856145E+02  2.491856145E+02  0.000000000E+00  0.00000E+00  9.000E+00
      21    -1     0     0   507   502  0.000000000E+00  0.000000000E+00 -2.868256667E+02  2.868256667E+02  0.000000000E+00  0.00000E+00  9.000E+00
      -6     2     1     2     0   501  1.161828764E+02 -3.936930426E+01 -2.902430455E+01  2.123446239E+02  1.708783958E+02  0.00000E+00  9.000E+00
       6     2     1     2   507     0 -6.670708588E+01  1.256893771E+02  5.371194243E+00  2.231945548E+02  1.718700229E+02  0.00000E+00  9.000E+00
     -24     2     3     3     0     0  1.212292941E+02  5.518251716E+00  1.329900825E+01  1.459083109E+02  7.990856484E+01  0.00000E+00  9.000E+00
      24     2     4     4     0     0 -4.740312728E+01  1.530424955E+02 -1.751036294E+01  1.798544130E+02  7.982440198E+01  0.00000E+00  9.000E+00
     -11     1     6     6     0     0  2.462005398E+00  7.763835910E+01 -3.902386474E+01  8.692892668E+01  0.000000000E+00  0.00000E+00  9.000E+00
      12     1     6     6     0     0 -4.986513268E+01  7.540413644E+01  2.151350180E+01  9.292548632E+01  3.405298437E-06  0.00000E+00  9.000E+00
      13     1     5     5     0     0  8.247754460E+01  1.249170881E+01 -2.881517864E+01  8.825476006E+01  0.000000000E+00  0.00000E+00  9.000E+00
     -14     1     5     5     0     0  3.875174949E+01 -6.973457095E+00  4.211418689E+01  5.765355089E+01  1.907348633E-06  0.00000E+00  9.000E+00
       5     1     4     4   514     0 -1.542159484E+01 -2.492959204E+01  2.448694461E+01  3.849003901E+01  4.750000000E+00  0.00000E+00  9.000E+00
      -5     1     3     3     0   511 -1.225866401E+01 -1.922520880E+01 -1.248745920E+01  2.642693009E+01  4.750000000E+00  0.00000E+00  9.000E+00
      21     1     1     2   512   502 -4.947579055E+01 -8.632007280E+01 -1.398694191E+01  1.004721024E+02  2.145767212E-06  0.00000E+00  9.000E+00
      21     1     3     3   511   501  7.212246358E+00 -2.566234717E+01 -2.983585360E+01  4.000938290E+01  7.539457465E-07  0.00000E+00  9.000E+00
      21     1     4     4   507   514 -3.882363757E+00 -2.423526432E+00 -1.605387427E+00  4.850102834E+00  1.095007245E-07  0.00000E+00  9.000E+00
#rwgt            1          17   33.930154468498841                1     5332261           0       11110           0
<weights>
0.12400E+02
</weights>
</event>
<event>
     14  10001  1.35503E+01  1.16141E+01 -1.00000E+00  2.59041E-01
      21    -1     0     0   507   501  0.000000000E+00  0.000000000E+00  1.907858839E+02  1.907858839E+02  0.000000000E+00  0.00000E+00  9.000E+00
      21    -1     0     0   511   502  0.000000000E+00  0.000000000E+00 -3.515507813E+02  3.515507813E+02  0.000000000E+00  0.00000E+00  9.000E+00
      -6     2     1     2     0   502  5.112730624E+01 -6.309245167E+01 -1.544739356E+02  2.454665918E+02  1.726180525E+02  0.00000E+00  9.000E+00
       6     2     1     2   507     0 -4.831683466E+01  5.182355197E+01  8.553987146E+01  2.043077224E+02  1.714770503E+02  0.00000E+00  9.000E+00
     -24     2     3     3     0     0  8.948489715E+00 -7.033456823E+01 -1.647888627E+02  1.964061488E+02  7.995610712E+01  0.00000E+00  9.000E+00
      24     2     4     4     0     0  1.102960950E+01  8.305163294E+01  5.089696242E+01  1.286777871E+02  8.335614008E+01  0.00000E+00  9.000E+00
     -11     1     6     6     0     0 -2.878219328E+01  6.961997574E+01  3.988662922E+01  8.524258832E+01  0.000000000E+00  0.00000E+00  9.000E+00
      12     1     6     6     0     0  3.981180278E+01  1.343165719E+01  1.101033320E+01  4.343519878E+01  8.920806376E-07  0.00000E+00  9.000E+00
      13     1     5     5     0     0  1.892357262E+01 -8.338117067E+01 -1.106758754E+02  1.398558923E+02  0.000000000E+00  0.00000E+00  9.000E+00
     -14     1     5     5     0     0 -9.975082907E+00  1.304660244E+01 -5.411298728E+01  5.655025647E+01  1.348699152E-06  0.00000E+00  9.000E+00
       5     1     4     4   507     0 -5.934644416E+01 -3.122808096E+01  3.464290904E+01  7.562993535E+01  4.750000000E+00  0.00000E+00  9.000E+00
      -5     1     3     3     0   512  3.931208899E+01  1.001144004E+01  1.444272275E+01  4.332232695E+01  4.750000000E+00  0.00000E+00  9.000E+00
      21     1     1     2   511   501 -2.810471578E+00  1.126889970E+01 -9.183083332E+01  9.256235087E+01  1.348699152E-06  0.00000E+00  9.000E+00
      21     1     3     3   512   502  2.866727538E+00 -2.769323470E+00 -4.127795676E+00  5.738116102E+00  5.960464478E-08  0.00000E+00  9.000E+00
#rwgt            1          17   1.8776005139465184                1     5344682           0         111           0
<weights>
-.12970E+02
</weights>
</event>
<event>
     15  10001  1.35503E+01  3.25618E+01 -1.00000E+00  6.04819E-01
      21    -1     0     0   507   501  0.000000000E+00  0.000000000E+00  2.635470998E+02  2.635470998E+02  0.000000000E+00  0.00000E+00  9.000E+00
      21    -1     0     0   501   512  0.000000000E+00  0.000000000E+00 -2.659031837E+02  2.659031837E+02  0.000000000E+00  0.00000E+00  9.000E+00
      -6     2     1     2     0   502  1.252180054E+02  1.714748172E+01 -8.550082737E+01  2.306270515E+02  1.729302183E+02  0.00000E+00  9.000E+00
       6     2     1     2   507     0 -1.528673381E+02  5.093243311E-02  1.145127504E+02  2.536101487E+02  1.668427759E+02  0.00000E+00  9.000E+00
     -24     2     3     3     0     0  1.556610274E+02  3.162971010E+01 -7.848728197E+01  1.943185795E+02  7.980390289E+01  0.00000E+00  9.000E+00
      24     2     4     4     0     0 -9.812406340E+00 -6.050796302E+00  4.342458616E+01  9.338065360E+01  8.186181240E+01  0.00000E+00  9.000E+00
     -11     1     6     6     0     0 -2.547409734E+01 -3.876832951E+01  2.500888743E+01  5.270064002E+01  0.000000000E+00  0.00000E+00  9.000E+00
      12     1     6     6     0     0  1.566169100E+01  3.271753321E+01  1.841569874E+01  4.068001357E+01  4.768371582E-07  0.00000E+00  9.000E+00
      13     1     5     5     0     0  9.625079715E+01 -3.928701538E+00 -7.976475846E+01  1.250682507E+02  0.000000000E+00  0.00000E+00  9.000E+00
     -14     1     5     5     0     0  5.941023022E+01  3.555841163E+01  1.277476493E+00  6.925032880E+01  6.753366705E-07  0.00000E+00  9.000E+00
       5     1     4     4   511     0 -9.374550484E+01  5.221369649E+00  5.123888108E+01  1.070675853E+02  4.750000000E+00  0.00000E+00  9.000E+00
      -5     1     3     3     0   513 -3.093042234E+01 -1.474354470E+01 -5.936822803E+00  3.509802704E+01  4.750000000E+00  0.00000E+00  9.000E+00
      21     1     1     2   502   512  2.764933267E+01 -1.719841415E+01 -3.136800691E+01  4.521308333E+01  1.545128989E-06  0.00000E+00  9.000E+00
      21     1     4     4   507   511 -4.930942692E+01  8.803590867E-01  1.984928318E+01  5.316190984E+01  1.410503336E-06  0.00000E+00  9.000E+00
      21     1     3     3   513   502  4.874004028E-01  2.613163254E-01 -1.076722597E+00  1.210444929E+00  2.107342426E-08  0.00000E+00  9.000E+00
#rwgt            1          17   44.868187583710174                1     5356748           0       11011           0
<weights>
0.13903E+02
</weights>
</event>
<event>
     15  10001 -1.35503E+01  6.19935E+01 -1.00000E+00  1.98808E-01
      21    -1     0     0   511   501  0.000000000E+00  0.000000000E+00  1.048858300E+02  1.048858300E+02  0.000000000E+00  0.00000E+00  9.000E+00
      21    -1     0     0   507   502  0.000000000E+00  0.000000000E+00 -1.085527791E+03  1.085527791E+03  0.000000000E+00  0.00000E+00  9.000E+00
      -6     2     1     2     0   501  1.677039728E+02 -4.523855174E+01 -2.755215779E+02  3.855824365E+02  2.063747232E+02  0.00000E+00  9.000E+00
       6     2     1     2   507     0 -1.952184263E+02 -1.031457621E+01 -3.013013479E+02  3.962812998E+02  1.674507148E+02  0.00000E+00  9.000E+00
     -24     2     3     3     0     0  6.539200539E+00 -6.737250941E+01 -1.002379916E+02  1.449027196E+02  7.979553262E+01  0.00000E+00  9.000E+00
      24     2     4     4     0     0 -1.776915162E+02 -3.876691550E+01 -1.744511035E+02  2.642281415E+02  7.941142598E+01  0.00000E+00  9.000E+00
     -11     1     6     6     0     0 -5.885094411E+01 -5.189849572E+01 -7.763078599E+01  1.103785596E+02  0.000000000E+00  0.00000E+00  9.000E+00
      12     1     6     6     0     0 -1.188405720E+02  1.313158022E+01 -9.682031753E+01  1.538495819E+02  4.862803949E-06  0.00000E+00  9.000E+00
      13     1     5     5     0     0  1.520466127E+01 -9.440272083E-01  8.305322837E+00  1.735082992E+01  0.000000000E+00  0.00000E+00  9.000E+00
     -14     1     5     5     0     0 -8.665460728E+00 -6.642848221E+01 -1.085433144E+02  1.275518897E+02  2.336015456E-06  0.00000E+00  9.000E+00
       5     1     4     4   514     0 -1.009018795E+01  2.321478704E+01 -1.092116633E+02  1.122073444E+02  4.750000000E+00  0.00000E+00  9.000E+00
      -5     1     3     3     0   512  1.521805793E+02  1.465299136E+01 -1.662123534E+02  2.258821546E+02  4.750000000E+00  0.00000E+00  9.000E+00
      21     1     1     2   511   502  2.751445352E+01  5.555312795E+01 -4.038190356E+02  4.085498852E+02  7.629394531E-06  0.00000E+00  9.000E+00
      21     1     3     3   512   501  8.984193010E+00  7.480966316E+00 -9.071232987E+00  1.479756226E+01  5.462855929E-07  0.00000E+00  9.000E+00
      21     1     4     4   507   514 -7.436722232E+00  5.237552252E+00 -1.763858105E+01  1.984581398E+01  0.000000000E+00  0.00000E+00  9.000E+00
#rwgt            1          17  -122.98052530550839                1     5362934           0       11110           0
<weights>
-.13414E+02
</weights>
</event>
<event>
     15  10001  1.35503E+01  2.72354E+01 -1.00000E+00  2.84310E-01
      21    -1     0     0   512   501  0.000000000E+00  0.000000000E+00  3.934602731E+02  3.934602731E+02  0.000000000E+00  0.00000E+00  9.000E+00
      21    -1     0     0   507   502  0.000000000E+00  0.000000000E+00 -3.460352207E+02  3.460352207E+02  0.000000000E+00  0.00000E+00  9.000E+00
      -6     2     1     2     0   501 -1.239676629E+02 -1.777493107E+02  2.191773808E+02  3.531447736E+02  1.723650427E+02  0.00000E+00  9.000E+00
       6     2     1     2   507     0  1.169748077E+02  2.040716544E+02 -1.944747061E+02  3.508814061E+02  1.731155801E+02  0.00000E+00  9.000E+00
     -24     2     3     3     0     0 -4.850566433E+01 -1.291191134E+02  6.134491832E+01  1.712675680E+02  8.090016009E+01  0.00000E+00  9.000E+00
      24     2     4     4     0     0  1.182496952E+02  2.043375550E+02 -1.227638252E+02  2.778891398E+02  8.009113816E+01  0.00000E+00  9.000E+00
     -11     1     6     6     0     0  5.218569044E+01  4.503479664E+01 -6.829322238E+01  9.703320781E+01  0.000000000E+00  0.00000E+00  9.000E+00
      12     1     6     6     0     0  6.606400478E+01  1.593027584E+02 -5.447060286E+01  1.808559320E+02  4.768371582E-06  0.00000E+00  9.000E+00
      13     1     5     5     0     0 -5.547228601E+01 -1.067668631E+02  7.723292762E+01  1.429729439E+02  0.000000000E+00  0.00000E+00  9.000E+00
     -14     1     5     5     0     0  6.966621677E+00 -2.235225030E+01 -1.588800930E+01  2.829462405E+01  6.307962682E-07  0.00000E+00  9.000E+00
       5     1     4     4   511     0 -1.856342939E+00  3.560136600E+00 -6.458112386E+01  6.487992479E+01  4.750000000E+00  0.00000E+00  9.000E+00
      -5     1     3     3     0   513 -6.794514904E+01 -4.023800539E+01  1.376582449E+02  1.587702593E+02  4.750000000E+00  0.00000E+00  9.000E+00
      21     1     1     2   512   502  6.992855155E+00 -2.632234375E+01  2.272237758E+01  3.546931415E+01  1.118282261E-06  0.00000E+00  9.000E+00
      21     1     4     4   507   511  5.814554108E-01 -3.826037182E+00 -7.129756955E+00  8.112341534E+00  1.884864366E-07  0.00000E+00  9.000E+00
      21     1     3     3   513   501 -7.516849481E+00 -8.392191829E+00  2.017421763E+01  2.310694629E+01  4.129530925E-07  0.00000E+00  9.000E+00
#rwgt            1          17   6.6025190123053799                1     5368278           0       11011           0
<weights>
-.70193E+02
</weights>
</event>
<event>
     14  10001  1.35503E+01  1.41892E+01 -1.00000E+00  7.50056E-01
      21    -1     0     0   502   512  0.000000000E+00  0.000000000E+00  2.077824996E+02  2.077824996E+02  0.000000000E+00  0.00000E+00  9.000E+00
      21    -1     0     0   507   502  0.000000000E+00  0.000000000E+00 -1.874016057E+02  1.874016057E+02  0.000000000E+00  0.00000E+00  9.000E+00
      -6     2     1     2     0   501  3.850236732E+01 -1.178353118E+01  6.672337073E+01  1.897956006E+02  1.730580190E+02  0.00000E+00  9.000E+00
       6     2     1     2   507     0 -2.786730014E+01  2.117656716E+01 -5.969834578E+01  1.859022784E+02  1.725419694E+02  0.00000E+00  9.000E+00
     -24     2     3     3     0     0 -1.071421041E+01 -2.733703773E+01 -2.419485116E+01  8.513964687E+01  7.616600757E+01  0.00000E+00  9.000E+00
      24     2     4     4     0     0 -5.845338072E+01 -2.474815931E+01 -4.258029193E+01  1.115032789E+02  8.118270030E+01  0.00000E+00  9.000E+00
     -11     1     6     6     0     0 -1.521000190E+01 -5.314827666E+00  2.452275930E+01  2.934207345E+01  0.000000000E+00  0.00000E+00  9.000E+00
      12     1     6     6     0     0 -4.324337882E+01 -1.943333164E+01 -6.710305122E+01  8.216120541E+01  3.015782986E-06  0.00000E+00  9.000E+00
      13     1     5     5     0     0 -4.049319259E+01 -7.499963745E+00 -2.700774526E+01  4.924800916E+01  0.000000000E+00  0.00000E+00  9.000E+00
     -14     1     5     5     0     0  2.977898218E+01 -1.983707398E+01  2.812894101E+00  3.589163770E+01  2.995096332E-07  0.00000E+00  9.000E+00
       5     1     4     4   511     0  1.273463143E+00  1.764774620E+01  1.407092375E+01  2.310017423E+01  4.750000000E+00  0.00000E+00  9.000E+00
      -5     1     3     3     0   501  4.921657773E+01  1.555350655E+01  9.091822189E+01  1.046559538E+02  4.750000000E+00  0.00000E+00  9.000E+00
      21     1     4     4   507   511  2.931261744E+01  2.827698027E+01 -3.118897760E+01  5.129882531E+01  1.011524364E-06  0.00000E+00  9.000E+00
      21     1     1     2   501   512 -1.063506718E+01 -9.393035978E+00  1.335586888E+01  1.948622622E+01  0.000000000E+00  0.00000E+00  9.000E+00
#rwgt            1          17   7.9071855960295290                1     5374914           0        1001           0
<weights>
0.13450E+02
</weights>
</event>
<event>
     15  10001 -1.35503E+01  2.91817E+00 -1.00000E+00  1.55948E-01
      21    -1     0     0   502   511  0.000000000E+00  0.000000000E+00  1.431152186E+03  1.431152186E+03  0.000000000E+00  0.00000E+00  9.000E+00
      21    -1     0     0   507   502  0.000000000E+00  0.000000000E+00 -1.231031823E+02  1.231031823E+02  0.000000000E+00  0.00000E+00  9.000E+00
      -6     2     1     2     0   501 -1.256079587E+01  2.232490830E+01  1.357117021E+03  1.368187721E+03  1.717988837E+02  0.00000E+00  9.000E+00
       6     2     1     2   507     0  1.474812481E+01 -2.039325374E+01 -4.420230514E+01  1.803939488E+02  1.730743800E+02  0.00000E+00  9.000E+00
     -24     2     3     3     0     0  2.127722448E+01 -4.555773881E+01  8.281281608E+02  8.335288283E+02  8.028592030E+01  0.00000E+00  9.000E+00
      24     2     4     4     0     0  5.968901060E+01  3.112848115E+01 -1.705531526E+01  1.066226191E+02  8.090574015E+01  0.00000E+00  9.000E+00
     -11     1     6     6     0     0 -8.666452143E+00  6.989452567E+00 -3.087810291E+01  3.282403203E+01  0.000000000E+00  0.00000E+00  9.000E+00
      12     1     6     6     0     0  6.835546274E+01  2.413902859E+01  1.382278764E+01  7.379858702E+01  2.856051576E-06  0.00000E+00  9.000E+00
      13     1     5     5     0     0  3.120660663E+01 -1.492800910E+01  1.259938247E+02  1.306565789E+02  0.000000000E+00  0.00000E+00  9.000E+00
     -14     1     5     5     0     0 -9.929382153E+00 -3.062972972E+01  7.021343361E+02  7.028722493E+02  1.525878906E-05  0.00000E+00  9.000E+00
       5     1     4     4   514     0 -4.146046073E+01 -4.647114721E+01 -2.489402879E+01  6.723698756E+01  4.750000000E+00  0.00000E+00  9.000E+00
      -5     1     3     3     0   512 -1.212736690E+01  1.504351126E+01  1.686854827E+02  1.698550406E+02  4.750000000E+00  0.00000E+00  9.000E+00
      21     1     3     3   512   501 -2.171065344E+01  5.283913585E+01  3.603033774E+02  3.648038522E+02  3.814697266E-06  0.00000E+00  9.000E+00
      21     1     1     2   501   511 -2.187328936E+00 -1.931654563E+00 -4.865712164E+00  5.673698273E+00  1.788139343E-07  0.00000E+00  9.000E+00
      21     1     4     4   507   514 -3.480425060E+00 -5.050587685E+00 -2.252961090E+00  6.534342219E+00  1.976862425E-07  0.00000E+00  9.000E+00
#rwgt            1          17  -18.777388626437691                1     5382697           0      110110           0
<weights>
-.12504E+02
</weights>
</event>
<event>
     15  10001  1.35503E+01  4.30108E+01 -1.00000E+00  2.36760E-01
       2    -1     0     0   502     0  0.000000000E+00  0.000000000E+00  5.128628008E+02  5.128628008E+02  0.000000000E+00  0.00000E+00  9.000E+00
      21    -1     0     0   507   502  0.000000000E+00  0.000000000E+00 -2.332462280E+02  2.332462280E+02  0.000000000E+00  0.00000E+00  9.000E+00
      -6     2     1     2     0   501  1.129443412E+02  1.100543027E+02  1.151333438E+02  2.593498008E+02  1.706993222E+02  0.00000E+00  9.000E+00
       6     2     1     2   507     0 -1.272983219E+02 -1.505992102E+02 -5.102060824E+01  2.670052061E+02  1.726374605E+02  0.00000E+00  9.000E+00
     -24     2     3     3     0     0  4.553971352E+01 -6.523692071E+00  6.743556382E+01  1.152586101E+02  8.136687205E+01  0.00000E+00  9.000E+00
      24     2     4     4     0     0 -1.283606570E+02 -1.408590909E+02 -8.934074957E+01  2.251474007E+02  7.994898832E+01  0.00000E+00  9.000E+00
     -11     1     6     6     0     0 -6.274579487E+01 -1.475409761E+01 -3.021565201E+01  7.118780651E+01  0.000000000E+00  0.00000E+00  9.000E+00
      12     1     6     6     0     0 -6.561486213E+01 -1.261049933E+02 -5.912509756E+01  1.539595942E+02  6.572746635E-06  0.00000E+00  9.000E+00
      13     1     5     5     0     0  3.480399766E+01  3.427958744E+01  4.907672806E+01  6.924545910E+01  0.000000000E+00  0.00000E+00  9.000E+00
     -14     1     5     5     0     0  1.073571586E+01 -4.080327951E+01  1.835883576E+01  4.601315100E+01  1.980453459E-06  0.00000E+00  9.000E+00
       5     1     4     4   511     0  1.342403836E+00 -7.285078225E+00  3.839020834E+01  3.938584783E+01  4.750000000E+00  0.00000E+00  9.000E+00
      -5     1     3     3     0   512  6.517789477E+01  1.092335352E+02  4.052109639E+01  1.335838498E+02  4.750000000E+00  0.00000E+00  9.000E+00
       2     1     1     2   501     0  1.435398068E+01  4.054490748E+01  2.155038372E+02  2.197540219E+02  0.000000000E+00  0.00000E+00  9.000E+00
      21     1     3     3   512   501  2.226732894E+00  7.344459563E+00  7.176683630E+00  1.050734094E+01  8.429369702E-08  0.00000E+00  9.000E+00
      21     1     4     4   507   511 -2.800687028E-01 -2.455041014E+00 -7.006701110E-02  2.471957573E+00  4.247484450E-08  0.00000E+00  9.000E+00
#rwgt            1          17   43.914158428345033                1     5395681           0       11110           0
<weights>
0.13004E+02
</weights>
</event>
<event>
     15  10001  1.35503E+01  2.54674E+01 -1.00000E+00  3.12425E-01
      21    -1     0     0   511   501  0.000000000E+00  0.000000000E+00  6.963081642E+02  6.963081642E+02  0.000000000E+00  0.00000E+00  9.000E+00
      21    -1     0     0   501   502  0.000000000E+00  0.000000000E+00 -1.176340937E+02  1.176340937E+02  0.000000000E+00  0.00000E+00  9.000E+00
      -6     2     1     2     0   502  7.067337066E+01 -3.210958950E+01  7.187103314E+01  2.021892773E+02  1.723058542E+02  0.00000E+00  9.000E+00
       6     2     1     2   507     0 -9.608314122E+01  3.039730806E+01  1.406222957E+02  2.446876950E+02  1.730360416E+02  0.00000E+00  9.000E+00
     -24     2     3     3     0     0 -2.808163828E+01 -1.790947183E+01  4.225509550E+01  9.732299118E+01  8.109835959E+01  0.00000E+00  9.000E+00
      24     2     4     4     0     0 -1.304295641E+02  4.505577168E+01  1.102238010E+02  1.960674246E+02  8.515430080E+01  0.00000E+00  9.000E+00
     -11     1     6     6     0     0 -1.052329425E+02  3.060781569E+00  1.016621480E+02  1.463507188E+02  0.000000000E+00  0.00000E+00  9.000E+00
      12     1     6     6     0     0 -2.519662162E+01  4.199499011E+01  8.561653013E+00  4.971670582E+01  1.221531721E-06  0.00000E+00  9.000E+00
      13     1     5     5     0     0 -9.639316100E+00  3.188519545E+01  2.443786997E+01  4.131333432E+01  0.000000000E+00  0.00000E+00  9.000E+00
     -14     1     5     5     0     0 -1.844232218E+01 -4.979466728E+01  1.781722553E+01  5.600965687E+01  2.211002945E-06  0.00000E+00  9.000E+00
       5     1     4     4   512     0  3.225405225E+01 -1.391166549E+01  2.699145991E+01  4.455288690E+01  4.750000000E+00  0.00000E+00  9.000E+00
      -5     1     3     3     0   513  9.480446611E+01 -1.442758201E+01  2.591790109E+01  9.945019866E+01  4.750000000E+00  0.00000E+00  9.000E+00
      21     1     1     2   511   507  2.540977056E+01  1.712281435E+00  3.661807416E+02  3.670652856E+02  5.394796609E-06  0.00000E+00  9.000E+00
      21     1     3     3   513   502  3.950542829E+00  2.274643350E-01  3.698036557E+00  5.416087430E+00  1.115100797E-07  0.00000E+00  9.000E+00
      21     1     4     4   507   512  2.092370638E+00 -7.467981187E-01  3.407034781E+00  4.067383473E+00  7.300048300E-08  0.00000E+00  9.000E+00
#rwgt            1          17   33.573239199058641                1     5413428           0       11110           0
<weights>
0.16218E+02
</weights>
</event>
<event>
     14  10001  1.35503E+01  1.31185E+01 -1.00000E+00  7.50376E-01
      21    -1     0     0   512   501  0.000000000E+00  0.000000000E+00  1.005289428E+03  1.005289428E+03  0.000000000E+00  0.00000E+00  9.000E+00
      21    -1     0     0   507   502  0.000000000E+00  0.000000000E+00 -4.466243121E+02  4.466243121E+02  0.000000000E+00  0.00000E+00  9.000E+00
      -6     2     1     2     0   501  8.747132532E+01  6.092786352E+01  7.136239755E+02  7.396923328E+02  1.628561679E+02  0.00000E+00  9.000E+00
       6     2     1     2   507     0 -9.835757183E+01 -5.360776437E+01  2.405257630E+02  3.165192699E+02  1.725798401E+02  0.00000E+00  9.000E+00
     -24     2     3     3     0     0  7.808380943E-01 -7.661851978E-01  1.850546924E+02  2.004990040E+02  7.715837403E+01  0.00000E+00  9.000E+00
      24     2     4     4     0     0 -5.236019981E+01 -6.488320491E+01  2.420346730E+02  2.686659728E+02  8.154263442E+01  0.00000E+00  9.000E+00
     -11     1     6     6     0     0 -1.133522096E+01 -7.301485186E+01  1.379377041E+02  1.564815198E+02  0.000000000E+00  0.00000E+00  9.000E+00
      12     1     6     6     0     0 -4.102497886E+01  8.131646949E+00  1.040969689E+02  1.121844530E+02  1.907348633E-06  0.00000E+00  9.000E+00
      13     1     5     5     0     0 -8.879061059E+00 -1.447381390E+01  1.827904395E+02  1.835774327E+02  0.000000000E+00  0.00000E+00  9.000E+00
     -14     1     5     5     0     0  9.659899154E+00  1.370762870E+01  2.264252926E+00  1.692157137E+01  3.068336886E-07  0.00000E+00  9.000E+00
       5     1     4     4   511     0 -4.390332517E+01  1.152075622E+01 -8.541887323E-01  4.564561231E+01  4.750000000E+00  0.00000E+00  9.000E+00
      -5     1     3     3     0   501  8.669048722E+01  6.169404872E+01  5.285692831E+02  5.391933288E+02  4.750000000E+00  0.00000E+00  9.000E+00
      21     1     1     2   512   502  1.088624652E+01 -7.320099152E+00 -3.954846230E+02  3.957021370E+02  0.000000000E+00  0.00000E+00  9.000E+00
      21     1     4     4   507   511 -2.094046851E+00 -2.453156834E-01 -6.547212712E-01  2.207684746E+00  1.266598701E-07  0.00000E+00  9.000E+00
#rwgt            1          17   14.581050127945884                1     5422097           0         110           0
<weights>
0.66699E+01
</weights>
</event>
<event>
     15  10001  1.35503E+01  5.59201E+00 -1.00000E+00  2.25970E-01
      21    -1     0     0   512   501  0.000000000E+00  0.000000000E+00  3.049371265E+02  3.049371265E+02  0.000000000E+00  0.00000E+00  9.000E+00
      21    -1     0     0   501   502  0.000000000E+00  0.000000000E+00 -3.477076938E+02  3.477076938E+02  0.000000000E+00  0.00000E+00  9.000E+00
      -6     2     1     2     0   502 -5.695189283E+01 -1.040720992E+02 -2.323120307E+02  3.125500883E+02  1.721747896E+02  0.00000E+00  9.000E+00
       6     2     1     2   507     0  5.750403371E+01  9.850741391E+01  6.431635091E+01  2.147448242E+02  1.702008285E+02  0.00000E+00  9.000E+00
     -24     2     3     3     0     0  2.992727077E+01 -5.810842557E+01 -8.125878998E+01  1.320689298E+02  8.103690898E+01  0.00000E+00  9.000E+00
      24     2     4     4     0     0  3.427725678E+01  1.027961203E+02  1.015429235E+02  1.697495936E+02  8.223129902E+01  0.00000E+00  9.000E+00
     -11     1     6     6     0     0 -2.037943162E+01  1.266258771E+00  1.137307906E+01  2.337245327E+01  0.000000000E+00  0.00000E+00  9.000E+00
      12     1     6     6     0     0  5.465668841E+01  1.015298615E+02  9.016984441E+01  1.463771403E+02  3.814697266E-06  0.00000E+00  9.000E+00
      13     1     5     5     0     0  2.329443196E+00 -4.133291918E+01  3.322238755E+00  4.153159982E+01  0.000000000E+00  0.00000E+00  9.000E+00
     -14     1     5     5     0     0  2.759782757E+01 -1.677550639E+01 -8.458102874E+01  9.053733000E+01  1.651812370E-06  0.00000E+00  9.000E+00
       5     1     4     4   513     0  2.254009757E+01 -3.816454183E+00 -3.744982325E+01  4.413244931E+01  4.750000000E+00  0.00000E+00  9.000E+00
      -5     1     3     3     0   511 -6.009866763E+01 -3.193236087E+01 -9.778124339E+01  1.192277635E+02  4.750000000E+00  0.00000E+00  9.000E+00
      21     1     3     3   511   502 -2.678049596E+01 -1.403131278E+01 -5.327199731E+01  6.125339500E+01  1.348699152E-06  0.00000E+00  9.000E+00
      21     1     1     2   512   507 -5.521408862E-01  5.564685296E+00  1.252251125E+02  1.253499078E+02  2.336015456E-06  0.00000E+00  9.000E+00
      21     1     4     4   507   513  6.866793623E-01 -4.722521974E-01  2.232506942E-01  8.627812916E-01  5.268356064E-09  0.00000E+00  9.000E+00
#rwgt            1          17   17.669912095806509                1     5432175           0      110110           0
<weights>
0.22142E+02
</weights>
</event>
<event>
     15  10001  1.35503E+01  5.50458E+01 -1.00000E+00  5.43618E-01
      21    -1     0     0   502   501  0.000000000E+00  0.000000000E+00  3.421615339E+02  3.421615339E+02  0.000000000E+00  0.00000E+00  9.000E+00
      21    -1     0     0   512   502  0.000000000E+00  0.000000000E+00 -3.522528041E+02  3.522528041E+02  0.000000000E+00  0.00000E+00  9.000E+00
      -6     2     1     2     0   501  2.481423053E+01  2.246956591E+01 -2.058243117E+02  2.704068419E+02  1.721498924E+02  0.00000E+00  9.000E+00
       6     2     1     2   507     0 -2.600276058E+00 -7.283403772E+01 -2.953877988E+01  1.921078770E+02  1.752750364E+02  0.00000E+00  9.000E+00
     -24     2     3     3     0     0  5.895590692E+00 -5.120175385E+01 -9.368397896E+01  1.343497819E+02  8.134370533E+01  0.00000E+00  9.000E+00
      24     2     4     4     0     0  6.094067045E+01 -2.294870860E+01  1.212664394E+00  1.051743166E+02  8.258182477E+01  0.00000E+00  9.000E+00
     -11     1     6     6     0     0 -1.939456629E+01 -1.036669866E+01 -7.863223069E+00  2.335482647E+01  0.000000000E+00  0.00000E+00  9.000E+00
      12     1     6     6     0     0  8.033523674E+01 -1.258200994E+01  9.075887463E+00  8.181949016E+01  1.400392070E-06  0.00000E+00  9.000E+00
      13     1     5     5     0     0  1.750954531E+01 -5.627071064E+01 -1.029687493E+02  1.186403826E+02  0.000000000E+00  0.00000E+00  9.000E+00
     -14     1     5     5     0     0 -1.161395462E+01  5.068956796E+00  9.284770361E+00  1.570939928E+01  9.386548846E-07  0.00000E+00  9.000E+00
       5     1     4     4   511     0 -5.135568410E+01 -4.392391735E+01 -2.591428919E+01  7.253157718E+01  4.750000000E+00  0.00000E+00  9.000E+00
      -5     1     3     3     0   514  1.853852483E+01  7.370510484E+01 -1.122660660E+02  1.356552670E+02  4.750000000E+00  0.00000E+00  9.000E+00
      21     1     1     2   512   507 -2.221395448E+01  5.036447182E+01  2.252718214E+02  2.318996190E+02  4.672030912E-06  0.00000E+00  9.000E+00
      21     1     4     4   507   511 -1.218526241E+01 -5.961411783E+00 -4.837155081E+00  1.440198318E+01  4.655271575E-07  0.00000E+00  9.000E+00
      21     1     3     3   514   501  3.801150086E-01 -3.378508784E-02  1.257331958E-01  4.017930916E-01  7.902534096E-09  0.00000E+00  9.000E+00
#rwgt            1          17   3.7794391302854349                1     5441108           0       11011           0
<weights>
0.32658E+02
</weights>
</event>
<event>
     15  10001  1.35503E+01  8.37557E+00 -1.00000E+00  2.22501E-01
      21    -1     0     0   507   512  0.000000000E+00  0.000000000E+00  6.828740551E+02  6.828740551E+02  0.000000000E+00  0.00000E+00  9.000E+00
      21    -1     0     0   501   502  0.000000000E+00  0.000000000E+00 -6.194879146E+01  6.194879146E+01  0.000000000E+00  0.00000E+00  9.000E+00
      -6     2     1     2     0   502 -5.067945664E+01 -3.366057700E+01  2.049581066E+02  2.759223843E+02  1.744244676E+02  0.00000E+00  9.000E+00
       6     2     1     2   507     0  5.319544579E+01  2.567183768E+01  4.211738181E+02  4.590384403E+02  1.727428898E+02  0.00000E+00  9.000E+00
     -24     2     3     3     0     0 -3.308874613E+01 -6.489346830E+01  2.062426436E+02  2.343477970E+02  8.412392384E+01  0.00000E+00  9.000E+00
      24     2     4     4     0     0  1.179322713E+01  5.866864451E+01  1.846661271E+02  2.103956028E+02  8.113963958E+01  0.00000E+00  9.000E+00
     -11     1     6     6     0     0  1.221739649E+01 -1.928595152E+01  4.416787727E+01  4.971935322E+01  0.000000000E+00  0.00000E+00  9.000E+00
      12     1     6     6     0     0 -4.241693634E-01  7.795459602E+01  1.404982499E+02  1.606762496E+02  4.672030912E-06  0.00000E+00  9.000E+00
      13     1     5     5     0     0  1.302746747E+01 -4.459766805E+01  1.576306512E+02  1.643352947E+02  0.000000000E+00  0.00000E+00  9.000E+00
     -14     1     5     5     0     0 -4.611621360E+01 -2.029580025E+01  4.861199244E+01  7.001250226E+01  6.743495762E-07  0.00000E+00  9.000E+00
       5     1     4     4   511     0  1.570602037E+01 -4.533954524E+01  1.472534166E+02  1.549467155E+02  4.750000000E+00  0.00000E+00  9.000E+00
      -5     1     3     3     0   513 -1.572465614E+01  3.418945756E+01 -2.612496302E-01  3.793170930E+01  4.750000000E+00  0.00000E+00  9.000E+00
      21     1     4     4   507   511  2.569619829E+01  1.234273841E+01  8.925427439E+01  9.369612209E+01  9.536743164E-07  0.00000E+00  9.000E+00
      21     1     1     2   501   512 -2.515989148E+00  7.988739323E+00 -5.206661073E+00  9.862021948E+00  3.424026159E-07  0.00000E+00  9.000E+00
      21     1     3     3   513   502 -1.866054378E+00 -2.956566264E+00 -1.023287354E+00  3.642877986E+00  1.512302692E-07  0.00000E+00  9.000E+00
#rwgt            1          17   15.835367331037849                1     5452133           0      100111           0
<weights>
0.13439E+02
</weights>
</event>
<event>
     15  10001  1.35503E+01  5.07037E+00 -1.00000E+00  2.13159E-01
      21    -1     0     0   502   501  0.000000000E+00  0.000000000E+00  4.715940008E+02  4.715940008E+02  0.000000000E+00  0.00000E+00  9.000E+00
      21    -1     0     0   507   514  0.000000000E+00  0.000000000E+00 -1.015193317E+02  1.015193317E+02  0.000000000E+00  0.00000E+00  9.000E+00
      -6     2     1     2     0   501  9.160845201E+01  7.654082712E+01  2.192128896E+02  3.055264786E+02  1.761860705E+02  0.00000E+00  9.000E+00
       6     2     1     2   507     0 -9.614824801E+01 -7.428276213E+01  1.309987663E+02  2.470869052E+02  1.706717539E+02  0.00000E+00  9.000E+00
     -24     2     3     3     0     0  1.140227147E+02  1.403856172E+01  1.419766301E+02  1.997220875E+02  8.082875766E+01  0.00000E+00  9.000E+00
      24     2     4     4     0     0 -3.952951316E+01  1.451636481E+01  2.108267585E+01  9.383308544E+01  8.115948155E+01  0.00000E+00  9.000E+00
     -11     1     6     6     0     0  1.304474779E+01  2.690764082E+01  2.595893151E+01  3.959864524E+01  0.000000000E+00  0.00000E+00  9.000E+00
      12     1     6     6     0     0 -5.257426095E+01 -1.239127600E+01 -4.876255663E+00  5.423444021E+01  1.095818061E-06  0.00000E+00  9.000E+00
      13     1     5     5     0     0  1.814283116E+01  3.021739367E+01  1.165412716E+01  3.712239058E+01  0.000000000E+00  0.00000E+00  9.000E+00
     -14     1     5     5     0     0  9.587988352E+01 -1.617883195E+01  1.303225029E+02  1.625996969E+02  3.814697266E-06  0.00000E+00  9.000E+00
       5     1     4     4   512     0 -2.284072355E+01 -5.075956750E+01  5.498216950E+01  7.838261165E+01  4.750000000E+00  0.00000E+00  9.000E+00
      -5     1     3     3     0   511 -2.859674886E+01  5.706943768E+01  6.686927531E+01  9.256758203E+01  4.750000000E+00  0.00000E+00  9.000E+00
      21     1     4     4   507   512 -3.377801130E+01 -3.803955944E+01  5.493392094E+01  7.487120808E+01  9.536743164E-07  0.00000E+00  9.000E+00
      21     1     3     3   511   501  6.182486189E+00  5.432827712E+00  1.036698419E+01  1.323680904E+01  1.685873940E-07  0.00000E+00  9.000E+00
      21     1     1     2   502   514  4.539796002E+00 -2.258064990E+00  1.986301325E+01  2.049994880E+01  3.371747881E-07  0.00000E+00  9.000E+00
#rwgt            1          17   19.604195008023918                1     5455934           0      101101           0
<weights>
0.17854E+02
</weights>
</event>
<event>
     15  10001  1.35503E+01  1.22009E+01 -1.00000E+00  2.07558E-01
      21    -1     0     0   511   501  0.000000000E+00  0.000000000E+00  1.269498274E+02  1.269498274E+02  0.000000000E+00  0.00000E+00  9.000E+00
      21    -1     0     0   507   502  0.000000000E+00  0.000000000E+00 -2.042082177E+03  2.042082177E+03  0.000000000E+00  0.00000E+00  9.000E+00
      -6     2     1     2     0   501 -1.825980409E+01  1.359940730E+01 -8.942981191E+01  1.953324070E+02  1.721589197E+02  0.00000E+00  9.000E+00
       6     2     1     2   507     0  6.861816979E+00 -9.246546596E+00 -2.546491057E+01  1.734206257E+02  1.711539325E+02  0.00000E+00  9.000E+00
     -24     2     3     3     0     0 -7.058742248E+01  8.765918106E-01 -2.887251575E+01  1.115384696E+02  8.138707151E+01  0.00000E+00  9.000E+00
      24     2     4     4     0     0 -5.709258048E+01 -2.959906776E+01 -8.543506575E+00  1.017757896E+02  7.841971869E+01  0.00000E+00  9.000E+00
     -11     1     6     6     0     0 -1.812311263E+01  2.710867626E+01 -2.538546958E+00  3.270736554E+01  0.000000000E+00  0.00000E+00  9.000E+00
      12     1     6     6     0     0 -3.896946785E+01 -5.670774403E+01 -6.004959617E+00  6.906842402E+01  1.749982626E-06  0.00000E+00  9.000E+00
      13     1     5     5     0     0 -3.265383521E+00  2.549595291E+01  1.270293794E+01  2.867178015E+01  0.000000000E+00  0.00000E+00  9.000E+00
     -14     1     5     5     0     0 -6.732203896E+01 -2.461936110E+01 -4.157545370E+01  8.286668945E+01  2.078484985E-06  0.00000E+00  9.000E+00
       5     1     4     4   512     0  4.598291386E+01  1.500347013E+01 -3.781118375E+00  4.874824960E+01  4.750000000E+00  0.00000E+00  9.000E+00
      -5     1     3     3     0   513  4.513131147E+01  1.318699897E+01 -6.025479334E+01  7.657633340E+01  4.750000000E+00  0.00000E+00  9.000E+00
      21     1     1     2   511   502  1.139798711E+01 -4.352860707E+00 -1.800237628E+03  1.800278972E+03  3.051757812E-05  0.00000E+00  9.000E+00
      21     1     4     4   507   512  1.797148360E+01  5.349051041E+00 -1.314028562E+01  2.289658656E+01  4.768371582E-07  0.00000E+00  9.000E+00
      21     1     3     3   513   501  7.196306918E+00 -4.641834804E-01 -3.025028167E-01  7.217604001E+00  2.188112610E-07  0.00000E+00  9.000E+00
#rwgt            1          17   33.216716223659958                1     5460307           0       11011           0
<weights>
0.14965E+02
</weights>
</event>
<event>
     15  10001  1.35503E+01  1.46665E+01 -1.00000E+00  6.17357E-01
      21    -1     0     0   502   501  0.000000000E+00  0.000000000E+00  3.283901720E+02  3.283901720E+02  0.000000000E+00  0.00000E+00  9.000E+00
      21    -1     0     0   507   512  0.000000000E+00  0.000000000E+00 -1.521037050E+02  1.521037050E+02  0.000000000E+00  0.00000E+00  9.000E+00
      -6     2     1     2     0   501 -3.629714969E+01  8.472161023E+01  1.801065741E+02  2.656830375E+02  1.722029735E+02  0.00000E+00  9.000E+00
       6     2     1     2   507     0  4.308512324E+01 -7.172048963E+01 -2.044139846E+01  1.926439035E+02  1.723185025E+02  0.00000E+00  9.000E+00
     -24     2     3     3     0     0 -7.579030780E+01  1.348778583E+01  1.236204473E+02  1.658730589E+02  7.940885069E+01  0.00000E+00  9.000E+00
      24     2     4     4     0     0  7.586412174E+01 -7.530259219E+01  2.389453404E+01  1.359171630E+02  8.047782983E+01  0.00000E+00  9.000E+00
     -11     1     6     6     0     0  3.445935856E+01 -7.884870947E+01  3.501109467E+01  9.289964008E+01  0.000000000E+00  0.00000E+00  9.000E+00
      12     1     6     6     0     0  4.140476318E+01  3.546117276E+00 -1.111656063E+01  4.301752296E+01  1.322094978E-06  0.00000E+00  9.000E+00
      13     1     5     5     0     0 -8.609680680E+00 -2.012173406E+01  7.063375460E+01  7.394685978E+01  0.000000000E+00  0.00000E+00  9.000E+00
     -14     1     5     5     0     0 -6.718062712E+01  3.360951989E+01  5.298669268E+01  9.192619914E+01  2.523185073E-06  0.00000E+00  9.000E+00
       5     1     4     4   511     0 -2.141265581E+01  7.037228860E+00 -3.344753361E+01  4.061187540E+01  4.750000000E+00  0.00000E+00  9.000E+00
      -5     1     3     3     0   514  3.989515383E+01  7.111841330E+01  5.660071257E+01  9.937633105E+01  4.750000000E+00  0.00000E+00  9.000E+00
      21     1     1     2   502   512 -6.787973545E+00 -1.300112060E+01  1.662129140E+01  2.216693595E+01  2.384185791E-07  0.00000E+00  9.000E+00
      21     1     4     4   507   511 -1.136634269E+01 -3.455126303E+00 -1.088839889E+01  1.611486501E+01  5.462855929E-07  0.00000E+00  9.000E+00
      21     1     3     3   514   501 -4.019957323E-01  1.154110987E-01 -1.145857794E-01  4.336475428E-01  1.871935208E-08  0.00000E+00  9.000E+00
#rwgt            1          17   56.099292120810262                1     5480332           0       11011           0
<weights>
0.13219E+02
</weights>
</event>
<event>
     14  10001  1.35503E+01  5.08998E+01 -1.00000E+00  7.48777E-01
      21    -1     0     0   511   501  0.000000000E+00  0.000000000E+00  9.951557847E+02  9.951557847E+02  0.000000000E+00  0.00000E+00  9.000E+00
      21    -1     0     0   507   502  0.000000000E+00  0.000000000E+00 -6.448856990E+01  6.448856990E+01  0.000000000E+00  0.00000E+00  9.000E+00
      -6     2     1     2     0   501  1.037083667E+02 -1.146947115E+02  5.205379144E+02  5.695684432E+02  1.718667768E+02  0.00000E+00  9.000E+00
       6     2     1     2   507     0 -5.811042178E+01  9.207565310E+01  2.531874150E+02  3.250863670E+02  1.724022386E+02  0.00000E+00  9.000E+00
     -24     2     3     3     0     0  1.067979551E+02 -1.024870179E+02  2.685768929E+02  3.172482256E+02  8.126190499E+01  0.00000E+00  9.000E+00
      24     2     4     4     0     0 -1.798342390E+01  1.251751030E+02  1.924219306E+02  2.443599066E+02  8.181292451E+01  0.00000E+00  9.000E+00
     -11     1     6     6     0     0  4.016622331E+00  1.866439059E+01 -4.305027838E+00  1.957104994E+01  0.000000000E+00  0.00000E+00  9.000E+00
      12     1     6     6     0     0 -2.200004623E+01  1.065107125E+02  1.967269584E+02  2.247888566E+02  0.000000000E+00  0.00000E+00  9.000E+00
      13     1     5     5     0     0  7.733880583E+01 -2.014430275E+01  1.073820520E+02  1.338580924E+02  0.000000000E+00  0.00000E+00  9.000E+00
     -14     1     5     5     0     0  2.945914929E+01 -8.234271512E+01  1.611948409E+02  1.833901332E+02  2.697398305E-06  0.00000E+00  9.000E+00
       5     1     4     4   512     0 -2.733367259E+01 -2.786476266E+01  4.480508992E+01  5.961235810E+01  4.750000000E+00  0.00000E+00  9.000E+00
      -5     1     3     3     0   501 -3.089588387E+00 -1.220769360E+01  2.519610215E+02  2.523202176E+02  4.750000000E+00  0.00000E+00  9.000E+00
      21     1     1     2   511   502 -4.559794496E+01  2.261905838E+01  1.569418853E+02  1.649895444E+02  3.814697266E-06  0.00000E+00  9.000E+00
      21     1     4     4   507   512 -1.279332529E+01 -5.234687294E+00  1.596039454E+01  2.111410232E+01  4.129530925E-07  0.00000E+00  9.000E+00
#rwgt            1          17   50.787122410058778                1     5487481           0         110           0
<weights>
0.12026E+02
</weights>
</event>
<event>
     15  10001  1.35503E+01  1.45983E+02 -1.00000E+00  2.59946E-01
      21    -1     0     0   507   512  0.000000000E+00  0.000000000E+00  1.060279783E+02  1.060279783E+02  0.000000000E+00  0.00000E+00  9.000E+00
      21    -1     0     0   501   502  0.000000000E+00  0.000000000E+00 -1.068494852E+03  1.068494852E+03  0.000000000E+00  0.00000E+00  9.000E+00
      -6     2     1     2     0   502  8.570259711E+01  4.945858228E+01 -1.764611454E+02  2.661153598E+02  1.728807750E+02  0.00000E+00  9.000E+00
       6     2     1     2   507     0 -2.314124712E+02 -4.053376020E+01 -6.266912153E+02  6.923238435E+02  1.771318926E+02  0.00000E+00  9.000E+00
     -24     2     3     3     0     0  9.339713162E+01  9.223046640E+01 -1.311601186E+02  2.023514968E+02  8.070730081E+01  0.00000E+00  9.000E+00
      24     2     4     4     0     0 -1.370418718E+02  2.810463326E+01 -2.577333508E+02  3.041944703E+02  8.085450278E+01  0.00000E+00  9.000E+00
     -11     1     6     6     0     0 -1.111363414E+02  2.027296619E+01 -2.525135768E+02  2.766322216E+02  0.000000000E+00  0.00000E+00  9.000E+00
      12     1     6     6     0     0 -2.590553045E+01  7.831667073E+00 -5.219774007E+00  2.756224878E+01  8.429369702E-08  0.00000E+00  9.000E+00
      13     1     5     5     0     0  3.547244893E+01  7.835599582E+01 -4.354170693E+01  9.640454842E+01  0.000000000E+00  0.00000E+00  9.000E+00
     -14     1     5     5     0     0  5.792468269E+01  1.387447058E+01 -8.761841167E+01  1.059469483E+02  3.162979880E-06  0.00000E+00  9.000E+00
       5     1     4     4   511     0 -7.547796794E+01 -6.756967906E+01 -3.038938028E+02  3.203694603E+02  4.750000000E+00  0.00000E+00  9.000E+00
      -5     1     3     3     0   513 -9.114245260E+00 -3.617682416E+01 -3.453821489E+01  5.106155951E+01  4.750000000E+00  0.00000E+00  9.000E+00
      21     1     1     2   501   512  1.457098741E+02 -8.924822080E+00 -1.593145134E+02  2.160836274E+02  5.046370146E-06  0.00000E+00  9.000E+00
      21     1     4     4   507   511 -1.889263146E+01 -1.068714402E+00 -6.506406162E+01  6.775991285E+01  1.348699152E-06  0.00000E+00  9.000E+00
      21     1     3     3   513   502  1.419710750E+00 -6.595059969E+00 -1.076281192E+01  1.270230353E+01  3.576278687E-07  0.00000E+00  9.000E+00
#rwgt            1          17   37.995340031985606                1     5498025           0       11011           0
<weights>
0.13194E+02
</weights>
</event>
<event>
     14  10001  1.35503E+01  1.18426E+02 -1.00000E+00  7.49841E-01
      21    -1     0     0   507   511  0.000000000E+00  0.000000000E+00  3.125404261E+03  3.125404261E+03  0.000000000E+00  0.00000E+00  9.000E+00
      21    -1     0     0   501   502  0.000000000E+00  0.000000000E+00 -1.716000609E+02  1.716000609E+02  0.000000000E+00  0.00000E+00  9.000E+00
      -6     2     1     2     0   502  3.902418640E+02 -1.113994180E+02  3.816275127E+02  5.832697889E+02  1.728165079E+02  0.00000E+00  9.000E+00
       6     2     1     2   507     0 -4.903441459E+02  1.746787073E+02  2.528849042E+03  2.587631321E+03  1.726509348E+02  0.00000E+00  9.000E+00
     -24     2     3     3     0     0  1.342060114E+02 -7.195597548E+01  9.378938603E+01  1.959927657E+02  8.017355793E+01  0.00000E+00  9.000E+00
      24     2     4     4     0     0 -2.870917145E+02  3.397769477E+01  1.366388052E+03  1.398922200E+03  7.994296965E+01  0.00000E+00  9.000E+00
     -11     1     6     6     0     0 -7.402532286E+01  3.477514506E+00  5.357216958E+02  5.408230551E+02  0.000000000E+00  0.00000E+00  9.000E+00
      12     1     6     6     0     0 -2.130663916E+02  3.050018027E+01  8.306663557E+02  8.580991451E+02  0.000000000E+00  0.00000E+00  9.000E+00
      13     1     5     5     0     0  7.753191132E+01 -2.362845329E+00  2.079661055E+01  8.030740515E+01  0.000000000E+00  0.00000E+00  9.000E+00
     -14     1     5     5     0     0  5.667410004E+01 -6.959313015E+01  7.299277548E+01  1.156853606E+02  2.336015456E-06  0.00000E+00  9.000E+00
       5     1     4     4   512     0 -1.640177508E+02  1.215648393E+02  9.864347969E+02  1.007350983E+03  4.750000000E+00  0.00000E+00  9.000E+00
      -5     1     3     3     0   502  2.560358527E+02 -3.944344248E+01  2.878381267E+02  3.872770232E+02  4.750000000E+00  0.00000E+00  9.000E+00
      21     1     1     2   501   511  1.001022819E+02 -6.327928934E+01  4.332764635E+01  1.261032126E+02  1.348699152E-06  0.00000E+00  9.000E+00
      21     1     4     4   507   512 -3.923468063E+01  1.913617317E+01  1.760261931E+02  1.813581373E+02  0.000000000E+00  0.00000E+00  9.000E+00
#rwgt            1          17   215.35342238076629                1     5501598           0         110           0
<weights>
0.14510E+02
</weights>
</event>
<event>
     15  10001 -1.35503E+01  2.18799E+01 -1.00000E+00  2.58734E-01
      21    -1     0     0   512   501  0.000000000E+00  0.000000000E+00  2.994082575E+02  2.994082575E+02  0.000000000E+00  0.00000E+00  9.000E+00
      21    -1     0     0   501   502  0.000000000E+00  0.000000000E+00 -2.115265022E+02  2.115265022E+02  0.000000000E+00  0.00000E+00  9.000E+00
      -6     2     1     2     0   502 -3.049099235E+01  9.798355359E+01  4.692072430E+00  2.001185426E+02  1.717409041E+02  0.00000E+00  9.000E+00
       6     2     1     2   507     0  1.181789452E+01 -8.657973117E+01 -2.934733962E+01  1.961719273E+02  1.731659500E+02  0.00000E+00  9.000E+00
     -24     2     3     3     0     0 -6.116123856E+01  1.808214026E+01 -2.763974248E+01  1.073806407E+02  8.184733185E+01  0.00000E+00  9.000E+00
      24     2     4     4     0     0 -5.834972572E+01 -3.106907167E+01 -2.117157558E+01  1.056947370E+02  7.970673823E+01  0.00000E+00  9.000E+00
     -11     1     6     6     0     0  1.957027305E+01 -1.224499689E+01 -1.382769837E+00  2.312677211E+01  0.000000000E+00  0.00000E+00  9.000E+00
      12     1     6     6     0     0 -7.791999877E+01 -1.882407479E+01 -1.978880574E+01  8.256796493E+01  2.780414531E-06  0.00000E+00  9.000E+00
      13     1     5     5     0     0  1.121959229E+01  1.088650644E+01 -3.083640376E+01  3.457280825E+01  0.000000000E+00  0.00000E+00  9.000E+00
     -14     1     5     5     0     0 -7.238083085E+01  7.195633819E+00  3.196661278E+00  7.280783244E+01  2.059165796E-06  0.00000E+00  9.000E+00
       5     1     4     4   514     0  6.933835926E+01 -5.507458002E+01 -9.122983504E+00  8.914487510E+01  4.750000000E+00  0.00000E+00  9.000E+00
      -5     1     3     3     0   511  2.785543384E+01  7.781387861E+01  2.852178351E+01  8.756129016E+01  4.750000000E+00  0.00000E+00  9.000E+00
      21     1     1     2   512   507  1.867309783E+01 -1.140382242E+01  1.125370225E+02  1.146442898E+02  3.015782986E-06  0.00000E+00  9.000E+00
      21     1     3     3   511   502  2.814812368E+00  2.087534716E+00  3.810031399E+00  5.176611741E+00  0.000000000E+00  0.00000E+00  9.000E+00
      21     1     4     4   507   514  8.292609904E-01 -4.360794761E-01  9.472194579E-01  1.332315203E+00  2.787751993E-08  0.00000E+00  9.000E+00
#rwgt            1          17  -8.2770539107625218                1     5512148           0       11110           0
<weights>
-.20324E+02
</weights>
</event>
<event>
     15  10001  1.35503E+01  3.33791E+01 -1.00000E+00  1.32840E-01
      21    -1     0     0   502   501  0.000000000E+00  0.000000000E+00  2.396631381E+02  2.396631381E+02  0.000000000E+00  0.00000E+00  9.000E+00
      21    -1     0     0   507   512  0.000000000E+00  0.000000000E+00 -2.076491453E+02  2.076491453E+02  0.000000000E+00  0.00000E+00  9.000E+00
      -6     2     1     2     0   501 -7.186268598E+01  7.195238757E+01  2.273456076E+01  2.020119024E+02  1.730622915E+02  0.00000E+00  9.000E+00
       6     2     1     2   507     0  1.039102085E+02 -6.261846188E+01  9.659001690E+00  2.119190997E+02  1.734877670E+02  0.00000E+00  9.000E+00
     -24     2     3     3     0     0 -2.313106374E+01  4.536515446E+01 -2.714701704E+01  9.825855940E+01  7.952823783E+01  0.00000E+00  9.000E+00
      24     2     4     4     0     0  5.924864957E+01  1.519594482E+01 -3.944581401E+01  1.093003561E+02  8.154309522E+01  0.00000E+00  9.000E+00
     -11     1     6     6     0     0  6.814860332E+01 -6.088847543E+00 -6.018001119E+00  6.868422334E+01  0.000000000E+00  0.00000E+00  9.000E+00
      12     1     6     6     0     0 -8.899953751E+00  2.128479236E+01 -3.342781289E+01  4.061613272E+01  4.768371582E-07  0.00000E+00  9.000E+00
      13     1     5     5     0     0 -1.982548858E+01  1.974473243E+01 -5.411090177E+01  6.091710881E+01  0.000000000E+00  0.00000E+00  9.000E+00
     -14     1     5     5     0     0 -3.305575166E+00  2.562042204E+01  2.696388473E+01  3.734145059E+01  3.371747881E-07  0.00000E+00  9.000E+00
       5     1     4     4   513     0  2.840692237E+01 -5.451482693E+01  3.213864385E+01  6.952894737E+01  4.750000000E+00  0.00000E+00  9.000E+00
      -5     1     3     3     0   511 -5.319726648E+01  4.604643078E+01  3.424191215E+01  7.839192558E+01  4.750000000E+00  0.00000E+00  9.000E+00
      21     1     3     3   511   501  4.465644243E+00 -1.945919768E+01  1.563966565E+01  2.536141744E+01  4.129530925E-07  0.00000E+00  9.000E+00
      21     1     1     2   502   512 -3.204752251E+01 -9.333925693E+00 -3.795696587E-01  3.338128130E+01  2.826805657E-07  0.00000E+00  9.000E+00
      21     1     4     4   507   513  1.625463656E+01 -2.329957977E+01  1.696617185E+01  3.308979623E+01  4.768371582E-07  0.00000E+00  9.000E+00
#rwgt            1          17   8.4351843939485853                1     5522356           0      110110           0
<weights>
0.14031E+02
</weights>
</event>
<event>
     15  10001  1.35503E+01  8.06697E+00 -1.00000E+00  5.44812E-01
      21    -1     0     0   511   501  0.000000000E+00  0.000000000E+00  1.756397408E+02  1.756397408E+02  0.000000000E+00  0.00000E+00  9.000E+00
      21    -1     0     0   501   502  0.000000000E+00  0.000000000E+00 -3.390160051E+02  3.390160051E+02  0.000000000E+00  0.00000E+00  9.000E+00
      -6     2     1     2     0   502 -9.397054643E+01 -2.312361383E+01 -2.109292861E+02  2.892280846E+02  1.726167896E+02  0.00000E+00  9.000E+00
       6     2     1     2   507     0  9.347782838E+01  3.117552141E+01  2.170156421E+01  1.983467854E+02  1.707643753E+02  0.00000E+00  9.000E+00
     -24     2     3     3     0     0 -1.897421951E+01  7.160148369E+00 -1.892798735E+02  2.051775471E+02  7.654845928E+01  0.00000E+00  9.000E+00
      24     2     4     4     0     0  6.860212307E+01 -7.786391599E-01 -4.366805551E+01  1.137918988E+02  7.959170556E+01  0.00000E+00  9.000E+00
     -11     1     6     6     0     0  6.654662432E+01  2.029323245E+01 -5.055102580E+00  6.975544820E+01  0.000000000E+00  0.00000E+00  9.000E+00
      12     1     6     6     0     0  2.055498746E+00 -2.107187161E+01 -3.861295293E+01  4.403645060E+01  1.348699152E-06  0.00000E+00  9.000E+00
      13     1     5     5     0     0  2.099903501E+01 -2.115779723E+01 -8.172983174E+01  8.699642091E+01  0.000000000E+00  0.00000E+00  9.000E+00
     -14     1     5     5     0     0 -3.997325452E+01  2.831794560E+01 -1.075500417E+02  1.181811262E+02  0.000000000E+00  0.00000E+00  9.000E+00
       5     1     4     4   512     0  1.473202410E+01  3.034390086E+01  6.599236039E+01  7.426532827E+01  4.750000000E+00  0.00000E+00  9.000E+00
      -5     1     3     3     0   514 -7.092616041E+01 -2.959331661E+01 -1.966738973E+01  7.947108491E+01  4.750000000E+00  0.00000E+00  9.000E+00
      21     1     4     4   507   512  1.014368122E+01  1.610259702E+00 -6.227406751E-01  1.028955834E+01  1.916986753E-07  0.00000E+00  9.000E+00
      21     1     1     2   511   507  4.927180484E-01 -8.051907578E+00  2.585145749E+01  2.708087593E+01  7.539457465E-07  0.00000E+00  9.000E+00
      21     1     3     3   514   502 -4.070166512E+00 -6.904455853E-01 -1.982022897E+00  4.579452511E+00  3.650024150E-08  0.00000E+00  9.000E+00
#rwgt            1          17   49.924144949010092                1     5526791           0      100111           0
<weights>
0.13200E+02
</weights>
</event>
<event>
     13  10001  1.35503E+01  1.54134E+02 -1.00000E+00  1.15928E-01
      21    -1     0     0   507   501  0.000000000E+00  0.000000000E+00  7.649116637E+02  7.649116637E+02  0.000000000E+00  0.00000E+00  9.000E+00
      21    -1     0     0   501   511  0.000000000E+00  0.000000000E+00 -3.655713838E+02  3.655713838E+02  0.000000000E+00  0.00000E+00  9.000E+00
      -6     2     1     2     0   502  1.568824796E+01 -1.160014236E+02  3.335567796E+01  2.100115372E+02  1.711426104E+02  0.00000E+00  9.000E+00
       6     2     1     2   507     0 -2.517065726E+01 -3.784050971E+01  6.084070959E+02  6.331982570E+02  1.694561069E+02  0.00000E+00  9.000E+00
     -24     2     3     3     0     0  7.286531818E+00 -1.487953196E+02  1.224633494E+01  1.698344876E+02  8.062654520E+01  0.00000E+00  9.000E+00
      24     2     4     4     0     0 -9.192090118E-01 -8.478220259E+01  3.329182352E+02  3.526482077E+02  7.960741344E+01  0.00000E+00  9.000E+00
     -11     1     6     6     0     0 -2.957863517E+01 -1.579866523E+01  5.127328390E+01  6.126535011E+01  0.000000000E+00  0.00000E+00  9.000E+00
      12     1     6     6     0     0  2.865942616E+01 -6.898353736E+01  2.816449513E+02  2.913828576E+02  5.394796609E-06  0.00000E+00  9.000E+00
      13     1     5     5     0     0 -2.067832160E+01 -9.670732892E+01  3.720701243E+01  1.056610724E+02  0.000000000E+00  0.00000E+00  9.000E+00
     -14     1     5     5     0     0  2.796485342E+01 -5.208799065E+01 -2.496067749E+01  6.417341519E+01  7.539457465E-07  0.00000E+00  9.000E+00
       5     1     4     4   507     0 -2.425144825E+01  4.694169289E+01  2.754888607E+02  2.805500493E+02  4.750000000E+00  0.00000E+00  9.000E+00
      -5     1     3     3     0   502  8.401716140E+00  3.279389600E+01  2.110934301E+01  4.017704956E+01  4.750000000E+00  0.00000E+00  9.000E+00
      21     1     1     2   502   511  9.482409301E+00  1.538419333E+02 -2.424224939E+02  2.872732533E+02  7.136645101E-06  0.00000E+00  9.000E+00
#rwgt            2         113   2.6720468987000361                1     5534720           0           1           0
<weights>
0.13550E+02
</weights>
</event>
<event>
     15  10001  1.35503E+01  4.23190E+01 -1.00000E+00  2.44611E-01
      21    -1     0     0   502   501  0.000000000E+00  0.000000000E+00  1.345214312E+03  1.345214312E+03  0.000000000E+00  0.00000E+00  9.000E+00
      21    -1     0     0   512   502  0.000000000E+00  0.000000000E+00 -4.183108022E+02  4.183108022E+02  0.000000000E+00  0.00000E+00  9.000E+00
      -6     2     1     2     0   501  4.455562970E+02 -9.241630777E+01  1.022126317E+03  1.132321932E+03  1.742112588E+02  0.00000E+00  9.000E+00
       6     2     1     2   507     0 -4.503848272E+02  5.037369017E+01 -1.944952114E+02  5.232869801E+02  1.749767845E+02  0.00000E+00  9.000E+00
     -24     2     3     3     0     0  1.521248746E+02 -7.613043287E+01  3.182108489E+02  3.690917866E+02  7.767098739E+01  0.00000E+00  9.000E+00
      24     2     4     4     0     0 -4.275132487E+02  7.328205480E+01 -2.016104298E+02  4.849888256E+02  8.018452606E+01  0.00000E+00  9.000E+00
     -11     1     6     6     0     0 -2.047753268E+02  7.388874393E+01 -8.638483328E+01  2.342110594E+02  0.000000000E+00  0.00000E+00  9.000E+00
      12     1     6     6     0     0 -2.227379219E+02 -6.066891333E-01 -1.152255965E+02  2.507777662E+02  6.180515955E-06  0.00000E+00  9.000E+00
      13     1     5     5     0     0  1.330416439E+02 -9.062478819E+01  2.930056168E+02  3.343130610E+02  0.000000000E+00  0.00000E+00  9.000E+00
     -14     1     5     5     0     0  1.908323076E+01  1.449435532E+01  2.520523204E+01  3.477872561E+01  1.261592536E-06  0.00000E+00  9.000E+00
       5     1     4     4   513     0 -2.096883631E+01 -1.525491644E+01  1.205989826E+01  2.898979506E+01  4.750000000E+00  0.00000E+00  9.000E+00
      -5     1     3     3     0   511  2.927485291E+02 -1.457612693E+01  6.991136308E+02  7.580874593E+02  4.750000000E+00  0.00000E+00  9.000E+00
      21     1     1     2   512   507  4.828530185E+00  4.204261760E+01  9.927240451E+01  1.079162022E+02  1.907348633E-06  0.00000E+00  9.000E+00
      21     1     4     4   507   513 -1.902742188E+00 -7.653448189E+00 -4.944679856E+00  9.308359463E+00  7.679521279E-07  0.00000E+00  9.000E+00
      21     1     3     3   511   501  6.828932680E-01 -1.709747962E+00  4.801836861E+00  5.142685927E+00  8.429369702E-08  0.00000E+00  9.000E+00
#rwgt            1          17   30.020577925715280                1     5535351           0       11011           0
<weights>
0.14503E+02
</weights>
</event>
<event>
     15  10001  1.35503E+01  5.31344E+01 -1.00000E+00  1.85713E-01
      21    -1     0     0   502   511  0.000000000E+00  0.000000000E+00  1.332590002E+02  1.332590002E+02  0.000000000E+00  0.00000E+00  9.000E+00
      21    -1     0     0   507   502  0.000000000E+00  0.000000000E+00 -4.403429259E+02  4.403429259E+02  0.000000000E+00  0.00000E+00  9.000E+00
      -6     2     1     2     0   501  8.713216524E+01  9.504181978E+01 -7.940551973E+01  2.294557442E+02  1.723941421E+02  0.00000E+00  9.000E+00
       6     2     1     2   507     0 -3.852113780E+01 -7.358879710E+01 -2.187078150E+02  2.902598602E+02  1.718094554E+02  0.00000E+00  9.000E+00
     -24     2     3     3     0     0  4.416616368E+01  1.140088000E+02 -1.723266632E+01  1.473790066E+02  8.046707588E+01  0.00000E+00  9.000E+00
      24     2     4     4     0     0  7.402883966E+00 -8.656198588E+01 -6.654937924E+01  1.301859379E+02  7.051083931E+01  0.00000E+00  9.000E+00
     -11     1     6     6     0     0  1.103117070E+01 -2.380497394E+01 -6.180743189E+01  6.714552962E+01  0.000000000E+00  0.00000E+00  9.000E+00
      12     1     6     6     0     0 -3.628286734E+00 -6.275701194E+01 -4.741947358E+00  6.304040828E+01  1.726478142E-06  0.00000E+00  9.000E+00
      13     1     5     5     0     0  4.523871186E+01  1.923453940E+01 -1.868019443E+01  5.258762421E+01  0.000000000E+00  0.00000E+00  9.000E+00
     -14     1     5     5     0     0 -1.072548181E+00  9.477426063E+01  1.447528111E+00  9.479138239E+01  1.335130738E-06  0.00000E+00  9.000E+00
       5     1     4     4   513     0 -3.579774832E+01  4.286180435E+00 -1.101146819E+02  1.159640280E+02  4.750000000E+00  0.00000E+00  9.000E+00
      -5     1     3     3     0   512  4.564260166E+01 -1.481419737E+01 -5.297071275E+01  7.163216065E+01  4.750000000E+00  0.00000E+00  9.000E+00
      21     1     1     2   501   511 -4.861102743E+01 -2.145302268E+01 -8.970590888E+00  5.388632175E+01  1.359195024E-06  0.00000E+00  9.000E+00
      21     1     3     3   512   501 -2.676600104E+00 -4.152782878E+00 -9.202140663E+00  1.044457690E+01  2.665600750E-07  0.00000E+00  9.000E+00
      21     1     4     4   507   513 -1.012627345E+01  8.687008342E+00 -4.204375391E+01  4.410989425E+01  6.743495762E-07  0.00000E+00  9.000E+00
#rwgt            1          17   22.618128638661886                1     5541240           0       11110           0
<weights>
0.14021E+02
</weights>
</event>
<event>
     15  10001  1.35503E+01  1.24887E+02 -1.00000E+00  1.31257E-01
      21    -1     0     0   502   501  0.000000000E+00  0.000000000E+00  3.967823783E+02  3.967823783E+02  0.000000000E+00  0.00000E+00  9.000E+00
       2    -1     0     0   507     0  0.000000000E+00  0.000000000E+00 -3.826084896E+02  3.826084896E+02  0.000000000E+00  0.00000E+00  9.000E+00
      -6     2     1     2     0   501 -1.581486869E+02  4.461485196E+00  2.040010318E+02  3.109802212E+02  1.733821356E+02  0.00000E+00  9.000E+00
       6     2     1     2   507     0  2.298942360E+02  9.776008377E+01 -1.351611392E+02  3.320836686E+02  1.720541649E+02  0.00000E+00  9.000E+00
     -24     2     3     3     0     0 -1.482080704E+02  3.952767279E+01  1.069634602E+02  2.034284642E+02  8.008676037E+01  0.00000E+00  9.000E+00
      24     2     4     4     0     0  3.401308437E+01  3.093852825E+01 -2.917733451E+01  9.797406491E+01  8.144641249E+01  0.00000E+00  9.000E+00
     -11     1     6     6     0     0  3.746834568E+01  2.889816145E+01  1.800036648E+01  5.062601956E+01  0.000000000E+00  0.00000E+00  9.000E+00
      12     1     6     6     0     0 -3.455261309E+00  2.040366804E+00 -4.717770099E+01  4.734804535E+01  1.651812370E-06  0.00000E+00  9.000E+00
      13     1     5     5     0     0 -8.475964860E+00  2.962743256E+01  3.249048274E+01  4.478010952E+01  0.000000000E+00  0.00000E+00  9.000E+00
     -14     1     5     5     0     0 -1.397321055E+02  9.900240228E+00  7.447297745E+01  1.586483547E+02  3.162979880E-06  0.00000E+00  9.000E+00
       5     1     4     4   512     0  1.343713042E+02  3.860162028E+01 -8.290299042E+01  1.626075054E+02  4.750000000E+00  0.00000E+00  9.000E+00
      -5     1     3     3     0   511 -1.179965522E+01 -1.637848139E+00  2.420895584E+01  2.739617588E+01  4.750000000E+00  0.00000E+00  9.000E+00
       2     1     1     2   502     0 -7.174554910E+01 -1.022215690E+02 -5.466600397E+01  1.363269781E+02  0.000000000E+00  0.00000E+00  9.000E+00
      21     1     3     3   511   501  1.859038698E+00 -3.342833945E+01  7.282861582E+01  8.015558112E+01  1.651812370E-06  0.00000E+00  9.000E+00
      21     1     4     4   507   512  6.150984743E+01  2.821993524E+01 -2.308081426E+01  7.150209831E+01  9.536743164E-07  0.00000E+00  9.000E+00
#rwgt            1          17   24.662958831275137                1     5544342           0       11110           0
<weights>
0.12411E+02
</weights>
</event>
<event>
     15  10001  1.35503E+01  2.24950E+01 -1.00000E+00  3.73079E-01
      21    -1     0     0   511   501  0.000000000E+00  0.000000000E+00  1.394433256E+02  1.394433256E+02  0.000000000E+00  0.00000E+00  9.000E+00
       2    -1     0     0   507     0  0.000000000E+00  0.000000000E+00 -5.500329145E+02  5.500329145E+02  0.000000000E+00  0.00000E+00  9.000E+00
      -6     2     1     2     0   501  1.160176726E+02 -6.106670390E+01 -3.393106957E+02  4.036040738E+02  1.748578208E+02  0.00000E+00  9.000E+00
       6     2     1     2   507     0 -1.171645344E+02  3.860099241E+01 -1.118362315E+02  2.394941414E+02  1.721410362E+02  0.00000E+00  9.000E+00
     -24     2     3     3     0     0  1.227260461E+02 -3.975545251E+01 -3.465936436E+02  3.786992616E+02  8.150950010E+01  0.00000E+00  9.000E+00
      24     2     4     4     0     0 -1.496837651E+02  3.832364872E+01 -1.113925655E+02  2.055943260E+02  7.737436052E+01  0.00000E+00  9.000E+00
     -11     1     6     6     0     0 -2.773932522E+01  3.940422414E+01 -1.602708686E+01  5.078415655E+01  0.000000000E+00  0.00000E+00  9.000E+00
      12     1     6     6     0     0 -1.219444398E+02 -1.080575427E+00 -9.536547861E+01  1.548101694E+02  4.264961200E-06  0.00000E+00  9.000E+00
      13     1     5     5     0     0  9.090929344E+01 -4.821401972E+01 -3.207285234E+02  3.368321200E+02  0.000000000E+00  0.00000E+00  9.000E+00
     -14     1     5     5     0     0  3.181675265E+01  8.458567218E+00 -2.586512018E+01  4.186714166E+01  3.371747881E-07  0.00000E+00  9.000E+00
       5     1     4     4   512     0  2.548503421E+01 -2.805409501E+00  9.581585321E-01  2.609286988E+01  4.750000000E+00  0.00000E+00  9.000E+00
      -5     1     3     3     0   513 -6.585948643E+00 -1.792219164E+01  8.313874314E+00  2.136030615E+01  4.750000000E+00  0.00000E+00  9.000E+00
       2     1     1     2   511     0  1.146861851E+00  2.246571150E+01  4.055733842E+01  4.637802481E+01  0.000000000E+00  0.00000E+00  9.000E+00
      21     1     4     4   507   512  7.034196427E+00  3.082753190E+00 -1.401824618E+00  7.806945553E+00  2.117852927E-07  0.00000E+00  9.000E+00
      21     1     3     3   513   501 -1.224248738E-01 -3.389059753E+00 -1.030926490E+00  3.544506071E+00  1.705515853E-07  0.00000E+00  9.000E+00
#rwgt            1           6  0.32938408339574810                1     5545834           0       11011           0
<weights>
0.55193E+01
</weights>
</event>
<event>
     13  10001  1.35503E+01  1.81719E+02 -1.00000E+00  1.13185E-01
      21    -1     0     0   507   512  0.000000000E+00  0.000000000E+00  5.541138975E+02  5.541138975E+02  0.000000000E+00  0.00000E+00  9.000E+00
      21    -1     0     0   501   502  0.000000000E+00  0.000000000E+00 -3.809053507E+02  3.809053507E+02  0.000000000E+00  0.00000E+00  9.000E+00
      -6     2     1     2     0   502 -1.504501922E+01  1.874500374E+02 -1.941847759E+02  3.201837901E+02  1.715985522E+02  0.00000E+00  9.000E+00
       6     2     1     2   507     0 -8.179157709E+00 -7.220738761E+00 -3.340400870E+01  1.747667552E+02  1.711974101E+02  0.00000E+00  9.000E+00
     -24     2     3     3     0     0  3.216755172E+01  3.692484322E+01 -9.063583617E+01  1.314198996E+02  8.159742509E+01  0.00000E+00  9.000E+00
      24     2     4     4     0     0  6.652173532E+00  4.574341625E+01  2.513662592E+01  9.430099535E+01  7.825673274E+01  0.00000E+00  9.000E+00
     -11     1     6     6     0     0 -8.781942960E+00 -1.324362248E+00 -2.335258784E+01  2.498439145E+01  0.000000000E+00  0.00000E+00  9.000E+00
      12     1     6     6     0     0  1.543411649E+01  4.706777850E+01  4.848921376E+01  6.931660390E+01  2.336015456E-06  0.00000E+00  9.000E+00
      13     1     5     5     0     0  3.680633984E+01  4.057358530E+01 -1.672945150E+01  5.727824215E+01  0.000000000E+00  0.00000E+00  9.000E+00
     -14     1     5     5     0     0 -4.638788114E+00 -3.648742081E+00 -7.390638467E+01  7.414165745E+01  1.348699152E-06  0.00000E+00  9.000E+00
       5     1     4     4   507     0 -1.483133124E+01 -5.296415502E+01 -5.854063462E+01  8.046575983E+01  4.750000000E+00  0.00000E+00  9.000E+00
      -5     1     3     3     0   502 -4.721257094E+01  1.505251941E+02 -1.035489397E+02  1.887638905E+02  4.750000000E+00  0.00000E+00  9.000E+00
      21     1     1     2   501   512  2.322417693E+01 -1.802292986E+02  4.007973314E+02  4.400687029E+02  0.000000000E+00  0.00000E+00  9.000E+00
#rwgt            2         113   3.4952939309510485                1     5550463           0           1           0
<weights>
0.13550E+02
</weights>
</event>
<event>
     14  10001  1.35503E+01  9.04565E+01 -1.00000E+00  7.52458E-01
       2    -1     0     0   502     0  0.000000000E+00  0.000000000E+00  3.245326515E+03  3.245326515E+03  0.000000000E+00  0.00000E+00  9.000E+00
      21    -1     0     0   507   502  0.000000000E+00  0.000000000E+00 -1.040197655E+02  1.040197655E+02  0.000000000E+00  0.00000E+00  9.000E+00
      -6     2     1     2     0   501  5.556227085E+01 -1.438663079E+01  1.938270810E+02  2.650377602E+02  1.714115981E+02  0.00000E+00  9.000E+00
       6     2     1     2   507     0 -9.401819767E+01 -6.748841380E+01  8.858503200E+01  2.239832024E+02  1.700795683E+02  0.00000E+00  9.000E+00
     -24     2     3     3     0     0  2.937549587E+00  1.556502685E+01  2.798483779E+01  8.842327837E+01  8.236883970E+01  0.00000E+00  9.000E+00
      24     2     4     4     0     0 -1.105948093E+02 -9.631417661E+01  7.754737214E+01  1.852708852E+02  8.248680817E+01  0.00000E+00  9.000E+00
     -11     1     6     6     0     0 -3.174766672E+01  5.126951750E+00  4.018414303E+01  5.146810010E+01  0.000000000E+00  0.00000E+00  9.000E+00
      12     1     6     6     0     0 -7.884714261E+01 -1.014411284E+02  3.736322911E+01  1.338027851E+02  4.978326086E-06  0.00000E+00  9.000E+00
      13     1     5     5     0     0 -3.665358601E+01 -4.065616535E+00  2.411594605E+01  4.406351619E+01  0.000000000E+00  0.00000E+00  9.000E+00
     -14     1     5     5     0     0  3.959113559E+01  1.963064339E+01  3.868891740E+00  4.435976218E+01  1.944701445E-06  0.00000E+00  9.000E+00
       5     1     4     4   511     0  1.395166982E+01  2.014600627E+01  1.465949539E+01  2.894777996E+01  4.750000000E+00  0.00000E+00  9.000E+00
      -5     1     3     3     0   501  5.262472126E+01 -2.995165764E+01  1.658422432E+02  1.766144819E+02  4.750000000E+00  0.00000E+00  9.000E+00
       2     1     1     2   501     0  3.845592682E+01  8.187504459E+01  2.858894636E+03  2.860325318E+03  0.000000000E+00  0.00000E+00  9.000E+00
      21     1     4     4   507   511  2.624941845E+00  8.679756542E+00 -3.621835534E+00  9.764537160E+00  7.929882226E-07  0.00000E+00  9.000E+00
#rwgt            1          17   34.573945580834675                1     5553830           0         110           0
<weights>
0.12991E+02
</weights>
</event>
<event>
     14  10001  1.35503E+01  7.01671E+00 -1.00000E+00  1.59182E-01
       1    -1     0     0   507     0  0.000000000E+00  0.000000000E+00  3.520016661E+02  3.520016661E+02  0.000000000E+00  0.00000E+00  9.000E+00
      21    -1     0     0   512   502  0.000000000E+00  0.000000000E+00 -8.968668895E+02  8.968668895E+02  0.000000000E+00  0.00000E+00  9.000E+00
      -6     2     1     2     0   502  3.710061710E+01  5.490073438E+01 -9.706592775E+01  2.082286679E+02  1.718919352E+02  0.00000E+00  9.000E+00
       6     2     1     2   507     0 -4.385187058E+01 -5.298897695E+01  2.659778280E+02  3.268282764E+02  1.770358694E+02  0.00000E+00  9.000E+00
     -24     2     3     3     0     0 -3.605160660E+01  2.717594730E+01 -3.890016985E+01  1.069849052E+02  8.884985242E+01  0.00000E+00  9.000E+00
      24     2     4     4     0     0 -7.525199123E+01  1.657749539E+01  1.733097764E+02  2.066809005E+02  8.211601851E+01  0.00000E+00  9.000E+00
     -11     1     6     6     0     0 -3.642142379E+00  1.158651221E+01  1.108928104E+02  1.115559405E+02  0.000000000E+00  0.00000E+00  9.000E+00
      12     1     6     6     0     0 -7.160984886E+01  4.990983184E+00  6.241696600E+01  9.512495998E+01  9.536743164E-07  0.00000E+00  9.000E+00
      13     1     5     5     0     0 -5.370874416E+01  3.015798382E+01 -5.524386062E+01  8.274066306E+01  0.000000000E+00  0.00000E+00  9.000E+00
     -14     1     5     5     0     0  1.765713756E+01 -2.982036522E+00  1.634369077E+01  2.424424214E+01  3.371747881E-07  0.00000E+00  9.000E+00
       5     1     4     4   507     0  3.140012066E+01 -6.956647234E+01  9.266805157E+01  1.201473759E+02  4.750000000E+00  0.00000E+00  9.000E+00
      -5     1     3     3     0   511  4.272733088E+01  6.581629578E+00 -1.940618708E+01  4.762462860E+01  4.750000000E+00  0.00000E+00  9.000E+00
      21     1     3     3   511   502  3.042489282E+01  2.114315750E+01 -3.875957082E+01  5.361913410E+01  8.259061849E-07  0.00000E+00  9.000E+00
       1     1     1     2   512     0  6.751253479E+00 -1.911757422E+00 -7.137771236E+02  7.138116113E+02  0.000000000E+00  0.00000E+00  9.000E+00
#rwgt            1           4  0.26931151590675378                1     5561934           0        1101           0
<weights>
0.18030E+02
</weights>
</event>
<event>
     15  10001  1.35503E+01  1.02788E+02 -1.00000E+00  2.34314E-01
      21    -1     0     0   512   501  0.000000000E+00  0.000000000E+00  1.203360187E+02  1.203360187E+02  0.000000000E+00  0.00000E+00  9.000E+00
      21    -1     0     0   507   502  0.000000000E+00  0.000000000E+00 -1.711785406E+03  1.711785406E+03  0.000000000E+00  0.00000E+00  9.000E+00
      -6     2     1     2     0   501 -8.402256218E+01  1.109472275E+02 -5.251253720E+01  2.272688671E+02  1.718269278E+02  0.00000E+00  9.000E+00
       6     2     1     2   507     0  8.696891383E+01 -8.201338792E+00 -2.718330095E+02  3.335864401E+02  1.724989103E+02  0.00000E+00  9.000E+00
     -24     2     3     3     0     0 -9.764596872E+01  4.799931852E+01 -7.910757466E+01  1.569183887E+02  8.078800990E+01  0.00000E+00  9.000E+00
      24     2     4     4     0     0  6.995088381E+01  4.268384165E+01 -2.620741008E+02  2.783453946E+02  4.558824281E+01  0.00000E+00  9.000E+00
     -11     1     6     6     0     0  2.855328531E+01  3.042324288E+01 -7.011090311E+01  8.158677923E+01  0.000000000E+00  0.00000E+00  9.000E+00
      12     1     6     6     0     0  4.139759850E+01  1.226059877E+01 -1.919631977E+02  1.967586154E+02  2.697398305E-06  0.00000E+00  9.000E+00
      13     1     5     5     0     0 -1.077103663E+02  3.326997549E+01 -5.124099019E+01  1.238307448E+02  0.000000000E+00  0.00000E+00  9.000E+00
     -14     1     5     5     0     0  1.006439761E+01  1.472934304E+01 -2.786658447E+01  3.308764385E+01  1.305872339E-06  0.00000E+00  9.000E+00
       5     1     4     4   514     0  1.734027626E+01 -4.770417528E+01 -1.026784844E+01  5.200350691E+01  4.750000000E+00  0.00000E+00  9.000E+00
      -5     1     3     3     0   511  1.294460058E+01  4.279859290E+01  1.799439031E+01  4.843183685E+01  4.750000000E+00  0.00000E+00  9.000E+00
      21     1     1     2   512   502 -2.946351652E+00 -1.027458887E+02 -1.267103840E+03  1.271266117E+03  1.525878906E-05  0.00000E+00  9.000E+00
      21     1     3     3   511   501  6.788059650E-01  2.014931608E+01  8.600647151E+00  2.191864155E+01  1.415531884E-06  0.00000E+00  9.000E+00
      21     1     4     4   507   514 -3.222462353E-01 -3.181005164E+00  5.089397885E-01  3.237538602E+00  1.137281770E-07  0.00000E+00  9.000E+00
#rwgt            1          17   6.7396971742132488                1     5563358           0       11110           0
<weights>
0.15408E+02
</weights>
</event>
<event>
     15  10001 -1.35503E+01  8.08420E+00 -1.00000E+00  5.33135E-01
      21    -1     0     0   511   501  0.000000000E+00  0.000000000E+00  1.414654370E+03  1.414654370E+03  0.000000000E+00  0.00000E+00  9.000E+00
      21    -1     0     0   507   502  0.000000000E+00  0.000000000E+00 -5.889876203E+02  5.889876203E+02  0.000000000E+00  0.00000E+00  9.000E+00
      -6     2     1     2     0   501  1.615394910E+02  1.565214289E+02  1.222465377E+03  1.254902070E+03  1.725214254E+02  0.00000E+00  9.000E+00
       6     2     1     2   507     0 -1.669575570E+02 -1.625213352E+02  5.553659229E+01  2.963324655E+02  1.744723668E+02  0.00000E+00  9.000E+00
     -24     2     3     3     0     0  8.523921926E+01  7.747677545E+01  3.754518578E+02  4.007615472E+02  7.985828057E+01  0.00000E+00  9.000E+00
      24     2     4     4     0     0 -4.383719451E+01 -3.987750554E+01  7.092402115E+01  1.217017189E+02  7.917813163E+01  0.00000E+00  9.000E+00
     -11     1     6     6     0     0 -2.952327092E+00 -5.197403743E+01  5.617116444E+01  7.658470158E+01  0.000000000E+00  0.00000E+00  9.000E+00
      12     1     6     6     0     0 -4.088486741E+01  1.209653189E+01  1.475285672E+01  4.511701728E+01  1.011524364E-06  0.00000E+00  9.000E+00
      13     1     5     5     0     0  6.042904749E+00 -1.400159971E+01  1.918046963E+01  2.450412021E+01  0.000000000E+00  0.00000E+00  9.000E+00
     -14     1     5     5     0     0  7.919631451E+01  9.147837516E+01  3.562713882E+02  3.762574270E+02  1.144409180E-05  0.00000E+00  9.000E+00
       5     1     4     4   512     0 -1.074923264E+02 -1.096660999E+02 -1.330789026E+01  1.542106227E+02  4.750000000E+00  0.00000E+00  9.000E+00
      -5     1     3     3     0   513  7.410534991E+01  7.699096622E+01  8.158316031E+02  8.228140609E+02  4.750000000E+00  0.00000E+00  9.000E+00
      21     1     1     2   511   502  5.418065988E+00  5.999906223E+00 -4.523352196E+02  4.524074549E+02  7.629394531E-06  0.00000E+00  9.000E+00
      21     1     4     4   507   512 -1.562803608E+01 -1.297772968E+01 -2.079538607E+00  2.042012390E+01  4.204134935E-07  0.00000E+00  9.000E+00
      21     1     3     3   513   501  2.194921852E+00  2.053687262E+00  3.118191637E+01  3.132646200E+01  0.000000000E+00  0.00000E+00  9.000E+00
#rwgt            1          17  -23.388458459093950                1     5571080           0       11011           0
<weights>
-.15539E+02
</weights>
</event>
<event>
     15  10001  1.35503E+01  3.27540E+01 -1.00000E+00  2.69505E-01
      21    -1     0     0   502   512  0.000000000E+00  0.000000000E+00  1.068745765E+03  1.068745765E+03  0.000000000E+00  0.00000E+00  9.000E+00
      21    -1     0     0   507   502  0.000000000E+00  0.000000000E+00 -1.311451735E+02  1.311451735E+02  0.000000000E+00  0.00000E+00  9.000E+00
      -6     2     1     2     0   501  6.236503907E+01 -1.035837152E+02  7.903135059E+02  8.177964917E+02  1.719787200E+02  0.00000E+00  9.000E+00
       6     2     1     2   507     0 -9.392369714E+01  9.481576521E+01  2.145048554E+02  3.073210926E+02  1.749920877E+02  0.00000E+00  9.000E+00
     -24     2     3     3     0     0  9.249655366E+01 -4.025568348E+01  3.591176398E+02  3.807454210E+02  7.632472665E+01  0.00000E+00  9.000E+00
      24     2     4     4     0     0  1.344693866E+01  1.300778677E+01  5.914685877E+01  1.006028513E+02  7.919949571E+01  0.00000E+00  9.000E+00
     -11     1     6     6     0     0 -6.779473517E+00  1.706331912E+01  7.331362780E+01  7.557781514E+01  0.000000000E+00  0.00000E+00  9.000E+00
      12     1     6     6     0     0  2.022641218E+01 -4.055532357E+00 -1.416676903E+01  2.502503620E+01  2.384185791E-06  0.00000E+00  9.000E+00
      13     1     5     5     0     0  2.924042684E+00 -3.351427027E+01  6.460947642E+01  7.284326173E+01  0.000000000E+00  0.00000E+00  9.000E+00
     -14     1     5     5     0     0  8.957251098E+01 -6.741413214E+00  2.945081634E+02  3.079021593E+02  5.394796609E-06  0.00000E+00  9.000E+00
       5     1     4     4   511     0 -7.159161720E+01  6.476907082E+01  1.133674266E+02  1.489802944E+02  4.750000000E+00  0.00000E+00  9.000E+00
      -5     1     3     3     0   514 -2.617722664E+01 -6.136542456E+01  4.037943406E+02  4.092962186E+02  4.750000000E+00  0.00000E+00  9.000E+00
      21     1     1     2   501   512  3.155865808E+01  8.767950023E+00 -6.721777002E+01  7.477335391E+01  3.932099939E-06  0.00000E+00  9.000E+00
      21     1     4     4   507   511 -3.577901860E+01  1.703890763E+01  4.199057000E+01  5.773794692E+01  4.768371582E-07  0.00000E+00  9.000E+00
      21     1     3     3   514   501 -3.954287962E+00 -1.962607186E+00  2.740152547E+01  2.775485216E+01  0.000000000E+00  0.00000E+00  9.000E+00
#rwgt            1          17   36.366420228001545                1     5579771           0       11011           0
<weights>
0.11699E+02
</weights>
</event>
<event>
     15  10001  1.35503E+01  5.05037E+00 -1.00000E+00  3.04556E-01
       3    -1     0     0   507     0  0.000000000E+00  0.000000000E+00  8.598671380E+01  8.598671380E+01  0.000000000E+00  0.00000E+00  9.000E+00
      21    -1     0     0   511   502  0.000000000E+00  0.000000000E+00 -2.814979557E+03  2.814979557E+03  0.000000000E+00  0.00000E+00  9.000E+00
      -6     2     1     2     0   502  7.242004381E+01  5.107797165E+00 -1.039037279E+02  2.138751606E+02  1.722667912E+02  0.00000E+00  9.000E+00
       6     2     1     2   507     0 -7.098287423E+01 -2.662314889E-01 -2.526080452E+02  3.146046646E+02  1.735702485E+02  0.00000E+00  9.000E+00
     -24     2     3     3     0     0  7.297171301E+01 -4.972769490E+01 -3.358714828E+01  1.243889328E+02  8.091227062E+01  0.00000E+00  9.000E+00
      24     2     4     4     0     0 -1.006872133E+02  3.914144513E+01 -1.683375749E+02  2.154713906E+02  8.012748200E+01  0.00000E+00  9.000E+00
     -11     1     6     6     0     0 -2.988058300E+01  3.535885436E+01 -1.227100072E+02  1.311519870E+02  0.000000000E+00  0.00000E+00  9.000E+00
      12     1     6     6     0     0 -7.080663029E+01  3.782590767E+00 -4.562756776E+01  8.431940361E+01  6.743495762E-07  0.00000E+00  9.000E+00
      13     1     5     5     0     0  7.529547292E+01 -1.442589360E+01 -4.283771854E+01  8.782132302E+01  0.000000000E+00  0.00000E+00  9.000E+00
     -14     1     5     5     0     0 -2.323759904E+00 -3.530180130E+01  9.250570262E+00  3.656760979E+01  1.549720764E-06  0.00000E+00  9.000E+00
       5     1     4     4   513     0  3.069255090E+01 -4.012949130E+01 -8.040368241E+01  9.507745999E+01  4.750000000E+00  0.00000E+00  9.000E+00
      -5     1     3     3     0   512 -2.558695848E+00  4.366813405E+01 -5.566176220E+01  7.095242862E+01  4.750000000E+00  0.00000E+00  9.000E+00
       3     1     1     2   511     0 -1.437169582E+00 -4.841565676E+00 -2.372481070E+03  2.372486446E+03  0.000000000E+00  0.00000E+00  9.000E+00
      21     1     3     3   512   502  2.007026646E+00  1.116735801E+01 -1.465481738E+01  1.853379922E+01  3.769728732E-07  0.00000E+00  9.000E+00
      21     1     4     4   507   513 -9.882118403E-01  7.218146824E-01 -3.866787858E+00  4.055814027E+00  9.424321831E-08  0.00000E+00  9.000E+00
#rwgt            1          16  0.23352915785656536                1     5587652           0       11110           0
<weights>
0.15364E+02
</weights>
</event>
<event>
     15  10001  1.35503E+01  2.75297E+01 -1.00000E+00  2.50553E-01
      21    -1     0     0   512   501  0.000000000E+00  0.000000000E+00  8.630073824E+01  8.630073824E+01  0.000000000E+00  0.00000E+00  9.000E+00
      21    -1     0     0   501   502  0.000000000E+00  0.000000000E+00 -5.648136464E+02  5.648136464E+02  0.000000000E+00  0.00000E+00  9.000E+00
      -6     2     1     2     0   502 -8.602828577E+01  2.420146945E+01 -2.449588951E+02  3.129796731E+02  1.731035482E+02  0.00000E+00  9.000E+00
       6     2     1     2   507     0  9.048731109E+01 -5.136767063E+01 -1.502644946E+02  2.504133955E+02  1.711749376E+02  0.00000E+00  9.000E+00
     -24     2     3     3     0     0 -1.910284529E+01  7.429474967E+01 -1.386274708E+02  1.773615314E+02  7.971768091E+01  0.00000E+00  9.000E+00
      24     2     4     4     0     0  1.163377726E+02 -2.540769105E+01 -1.188606360E+02  1.861921950E+02  7.974744259E+01  0.00000E+00  9.000E+00
     -11     1     6     6     0     0  1.533230688E+01 -1.133234615E+01  1.026342860E+01  2.165270584E+01  0.000000000E+00  0.00000E+00  9.000E+00
      12     1     6     6     0     0  1.010054657E+02 -1.407534490E+01 -1.291240646E+02  1.645394892E+02  2.697398305E-06  0.00000E+00  9.000E+00
      13     1     5     5     0     0 -2.514224720E+01 -6.668740446E+00 -1.681903811E+01  3.097555062E+01  0.000000000E+00  0.00000E+00  9.000E+00
     -14     1     5     5     0     0  6.039401909E+00  8.096349011E+01 -1.218084327E+02  1.463859808E+02  3.568322551E-06  0.00000E+00  9.000E+00
       5     1     4     4   511     0 -3.017900664E+01 -1.658802331E+01 -3.836338911E+01  5.177110278E+01  4.750000000E+00  0.00000E+00  9.000E+00
      -5     1     3     3     0   514 -5.230804377E+01 -3.945547151E+01 -8.858747908E+01  1.102867609E+02  4.750000000E+00  0.00000E+00  9.000E+00
      21     1     1     2   512   507 -4.459025315E+00  2.716620118E+01 -8.328951843E+01  8.772131596E+01  1.348699152E-06  0.00000E+00  9.000E+00
      21     1     4     4   507   511  4.328545125E+00 -9.371956269E+00  6.959530552E+00  1.245009770E+01  2.384185791E-07  0.00000E+00  9.000E+00
      21     1     3     3   514   502 -1.461739672E+01 -1.063780871E+01 -1.774394523E+01  2.533138080E+01  2.384185791E-07  0.00000E+00  9.000E+00
#rwgt            1          17   25.437885019509395                1     5590142           0       11011           0
<weights>
0.13466E+02
</weights>
</event>
<event>
     14  10001  1.35503E+01  1.99705E+01 -1.00000E+00  5.54262E-01
      21    -1     0     0   507   511  0.000000000E+00  0.000000000E+00  9.588864535E+01  9.588864535E+01  0.000000000E+00  0.00000E+00  9.000E+00
      21    -1     0     0   501   502  0.000000000E+00  0.000000000E+00 -1.291880869E+03  1.291880869E+03  0.000000000E+00  0.00000E+00  9.000E+00
      -6     2     1     2     0   502  7.961590443E+00 -1.019527296E+02 -9.699938959E+02  9.906411462E+02  1.732742806E+02  0.00000E+00  9.000E+00
       6     2     1     2   507     0  2.098024705E+00  8.470093373E+01 -3.360480637E+01  2.037011535E+02  1.821708732E+02  0.00000E+00  9.000E+00
     -24     2     3     3     0     0  4.307973272E+01 -3.629389078E+01 -3.031655361E+02  3.196294245E+02  8.414580712E+01  0.00000E+00  9.000E+00
      24     2     4     4     0     0  2.478255141E+01  1.147652614E+02  1.394863362E+01  1.428542662E+02  8.017192094E+01  0.00000E+00  9.000E+00
     -11     1     6     6     0     0 -2.107125753E+01  8.337289957E+00  1.461825499E+01  2.696667715E+01  0.000000000E+00  0.00000E+00  9.000E+00
      12     1     6     6     0     0  4.585380894E+01  1.064279714E+02 -6.696213696E-01  1.158875890E+02  4.241730111E-06  0.00000E+00  9.000E+00
      13     1     5     5     0     0  2.713737254E+01  2.744586338E+00 -2.513410082E+02  2.528166769E+02  0.000000000E+00  0.00000E+00  9.000E+00
     -14     1     5     5     0     0  1.594236018E+01 -3.903847712E+01 -5.182452789E+01  6.681274755E+01  9.536743164E-07  0.00000E+00  9.000E+00
       5     1     4     4   507     0 -2.268452670E+01 -3.006432764E+01 -4.755343999E+01  6.084688737E+01  4.750000000E+00  0.00000E+00  9.000E+00
      -5     1     3     3     0   512 -3.345477098E+01 -6.190201593E+01 -6.393600451E+02  6.432378340E+02  4.750000000E+00  0.00000E+00  9.000E+00
      21     1     1     2   501   511 -1.005961515E+01  1.725179589E+01 -1.923935217E+02  1.934272151E+02  3.814697266E-06  0.00000E+00  9.000E+00
      21     1     3     3   512   502 -1.663371299E+00 -3.756822908E+00 -2.746831479E+01  2.777388773E+01  3.371747881E-07  0.00000E+00  9.000E+00
#rwgt            1          17   31.882672304791402                1     5593383           0         111           0
<weights>
0.15286E+02
</weights>
</event>
<event>
     15  10001  1.35503E+01  3.93952E+01 -1.00000E+00  2.23280E-01
      21    -1     0     0   507   512  0.000000000E+00  0.000000000E+00  1.907506131E+02  1.907506131E+02  0.000000000E+00  0.00000E+00  9.000E+00
      21    -1     0     0   501   502  0.000000000E+00  0.000000000E+00 -7.169643738E+02  7.169643738E+02  0.000000000E+00  0.00000E+00  9.000E+00
      -6     2     1     2     0   502  3.148803028E+01 -2.064891476E+02 -5.090301118E+02  5.768542404E+02  1.732625056E+02  0.00000E+00  9.000E+00
       6     2     1     2   507     0 -6.988130220E+01  2.153173595E+02 -3.639040644E+01  2.870328993E+02  1.726808093E+02  0.00000E+00  9.000E+00
     -24     2     3     3     0     0 -5.736220326E+00 -8.227144092E+01 -1.209579623E+02  1.673230061E+02  8.102262353E+01  0.00000E+00  9.000E+00
      24     2     4     4     0     0 -2.038828924E+01  1.324701879E+02 -8.513512973E+01  1.787692493E+02  8.213660067E+01  0.00000E+00  9.000E+00
     -11     1     6     6     0     0  2.062207588E-01  1.357801720E+02 -7.870441676E+01  1.569416543E+02  0.000000000E+00  0.00000E+00  9.000E+00
      12     1     6     6     0     0 -2.059451000E+01 -3.309984064E+00 -6.430712968E+00  2.182759505E+01  6.019774043E-07  0.00000E+00  9.000E+00
      13     1     5     5     0     0  2.268546553E+01 -1.085070960E+01 -7.180997338E+01  7.608574454E+01  0.000000000E+00  0.00000E+00  9.000E+00
     -14     1     5     5     0     0 -2.842168585E+01 -7.142073132E+01 -4.914798893E+01  9.123726161E+01  1.507891493E-06  0.00000E+00  9.000E+00
       5     1     4     4   513     0 -4.427447088E+01  7.345583020E+01  4.412031140E+01  9.656682733E+01  4.750000000E+00  0.00000E+00  9.000E+00
      -5     1     3     3     0   511  3.153250223E+01 -1.032607255E+02 -3.404448854E+02  3.571867279E+02  4.750000000E+00  0.00000E+00  9.000E+00
      21     1     1     2   501   512  3.839327192E+01 -8.828211894E+00  1.920675746E+01  4.382784716E+01  0.000000000E+00  0.00000E+00  9.000E+00
      21     1     3     3   511   502  5.691748369E+00 -2.095698116E+01 -4.762726409E+01  5.234450634E+01  1.168007728E-06  0.00000E+00  9.000E+00
      21     1     4     4   507   513 -5.218542080E+00  9.391341384E+00  4.624411893E+00  1.169682264E+01  1.976862425E-07  0.00000E+00  9.000E+00
#rwgt            1          17   5.5006096188890687                1     5603985           0       11110           0
<weights>
0.12557E+02
</weights>
</event>
<event>
     15  10001  1.35503E+01  3.89131E+01 -1.00000E+00  4.13482E-01
      21    -1     0     0   502   501  0.000000000E+00  0.000000000E+00  2.502506328E+02  2.502506328E+02  0.000000000E+00  0.00000E+00  9.000E+00
       2    -1     0     0   507     0  0.000000000E+00  0.000000000E+00 -1.708175940E+03  1.708175940E+03  0.000000000E+00  0.00000E+00  9.000E+00
      -6     2     1     2     0   501 -2.694353268E+01 -1.559867800E+01  1.039714721E+02  2.039622394E+02  1.726883186E+02  0.00000E+00  9.000E+00
       6     2     1     2   507     0 -9.515824497E+00  2.919816106E+01  1.611036211E+01  1.759774728E+02  1.725266461E+02  0.00000E+00  9.000E+00
     -24     2     3     3     0     0 -2.137136238E+01 -5.954104603E+01  1.189241251E+02  1.564303073E+02  7.953378025E+01  0.00000E+00  9.000E+00
      24     2     4     4     0     0 -6.650443378E+01  4.599647585E+01  1.997712066E+01  1.159585046E+02  8.067697283E+01  0.00000E+00  9.000E+00
     -11     1     6     6     0     0 -2.004442851E+01  1.723986071E+01 -3.133775679E+01  4.100057210E+01  0.000000000E+00  0.00000E+00  9.000E+00
      12     1     6     6     0     0 -4.646000527E+01  2.875661514E+01  5.131487745E+01  7.495793255E+01  3.631483605E-06  0.00000E+00  9.000E+00
      13     1     5     5     0     0 -3.825800227E+01 -4.181878245E+01  2.985988502E+01  6.406323467E+01  0.000000000E+00  0.00000E+00  9.000E+00
     -14     1     5     5     0     0  1.688663989E+01 -1.772226359E+01  8.906424013E+01  9.236707262E+01  7.136645101E-06  0.00000E+00  9.000E+00
       5     1     4     4   512     0  4.336117275E+01 -1.081611040E+01 -1.647339176E+00  4.497172192E+01  4.750000000E+00  0.00000E+00  9.000E+00
      -5     1     3     3     0   511 -5.974922273E+00  4.297731211E+01 -1.340080625E+01  4.566063031E+01  4.750000000E+00  0.00000E+00  9.000E+00
       2     1     1     2   502     0  3.645935717E+01 -1.359948307E+01 -1.578007142E+03  1.578486861E+03  0.000000000E+00  0.00000E+00  9.000E+00
      21     1     4     4   507   512  1.362743654E+01 -5.982204388E+00 -2.219419372E+00  1.504724621E+01  7.685301875E-07  0.00000E+00  9.000E+00
      21     1     3     3   511   501  4.027519708E-01  9.650559308E-01 -1.551846769E+00  1.871301818E+00  1.299053116E-07  0.00000E+00  9.000E+00
#rwgt            1          17   24.263862752454095                1     5613834           0       11011           0
<weights>
0.14633E+02
</weights>
</event>
<event>
     15  10001  1.35503E+01  2.69146E+01 -1.00000E+00  2.22622E-01
       1    -1     0     0   507     0  0.000000000E+00  0.000000000E+00  1.433655174E+03  1.433655174E+03  0.000000000E+00  0.00000E+00  9.000E+00
      21    -1     0     0   501   502  0.000000000E+00  0.000000000E+00 -1.420155407E+02  1.420155407E+02  0.000000000E+00  0.00000E+00  9.000E+00
      -6     2     1     2     0   502  2.518932049E+01 -5.781101849E+01 -6.424149167E+01  2.001608610E+02  1.787757962E+02  0.00000E+00  9.000E+00
       6     2     1     2   507     0 -4.703370887E+01  7.353420381E+01  9.855384704E+02  1.004190479E+03  1.717352425E+02  0.00000E+00  9.000E+00
     -24     2     3     3     0     0 -1.644936275E+01 -4.464803454E+00  2.860618358E+01  8.281607038E+01  7.582659013E+01  0.00000E+00  9.000E+00
      24     2     4     4     0     0 -3.079276597E+00  3.714628389E+01  2.444863735E+02  2.599475122E+02  8.006118859E+01  0.00000E+00  9.000E+00
     -11     1     6     6     0     0  2.131311824E+01  4.232567812E+01  2.198294837E+02  2.248793319E+02  0.000000000E+00  0.00000E+00  9.000E+00
      12     1     6     6     0     0 -2.439239483E+01 -5.179394232E+00  2.465688978E+01  3.506818022E+01  4.768371582E-07  0.00000E+00  9.000E+00
      13     1     5     5     0     0 -4.562778140E+01  2.405436062E+00  2.637413074E+01  5.275675626E+01  0.000000000E+00  0.00000E+00  9.000E+00
     -14     1     5     5     0     0  2.917841865E+01 -6.870239516E+00  2.232052842E+00  3.005931413E+01  1.123037558E-06  0.00000E+00  9.000E+00
       5     1     4     4   511     0 -2.855180143E+01  2.081656176E+01  6.324621670E+02  6.334662499E+02  4.750000000E+00  0.00000E+00  9.000E+00
      -5     1     3     3     0   512  3.954218699E+01 -5.578183788E+01 -8.844785973E+01  1.118963108E+02  4.750000000E+00  0.00000E+00  9.000E+00
       1     1     1     2   501     0  2.184438839E+01 -1.572318532E+01  3.703426547E+02  3.713193743E+02  0.000000000E+00  0.00000E+00  9.000E+00
      21     1     4     4   507   511 -1.540263085E+01  1.557135817E+01  1.085899299E+02  1.107767174E+02  0.000000000E+00  0.00000E+00  9.000E+00
      21     1     3     3   512   502  2.096496247E+00  2.435622844E+00 -4.399815527E+00  5.448479772E+00  8.429369702E-08  0.00000E+00  9.000E+00
#rwgt            1          17   94.130866663392013                1     5620684           0       11011           0
<weights>
0.13006E+02
</weights>
</event>
<event>
     13  10001  1.35503E+01  3.47920E+02 -1.00000E+00  1.03542E-01
      21    -1     0     0   511   501  0.000000000E+00  0.000000000E+00  1.063194501E+02  1.063194501E+02  0.000000000E+00  0.00000E+00  9.000E+00
       2    -1     0     0   507     0  0.000000000E+00  0.000000000E+00 -1.974530224E+03  1.974530224E+03  0.000000000E+00  0.00000E+00  9.000E+00
      -6     2     1     2     0   501  2.988860932E+01 -6.724277633E+01 -3.779183702E+02  4.221074023E+02  1.730244048E+02  0.00000E+00  9.000E+00
       6     2     1     2   507     0  2.328841334E+02 -1.607896785E+02 -1.027196325E+03  1.079513221E+03  1.735746657E+02  0.00000E+00  9.000E+00
     -24     2     3     3     0     0  1.827554372E+01 -1.119213149E+02 -3.110705921E+02  3.407303599E+02  8.044804958E+01  0.00000E+00  9.000E+00
      24     2     4     4     0     0  1.012683632E+02 -1.143747096E+02 -7.505474189E+02  7.696193039E+02  7.520365213E+01  0.00000E+00  9.000E+00
     -11     1     6     6     0     0  3.139018739E+01 -8.916618540E+01 -4.693586539E+02  4.787833523E+02  0.000000000E+00  0.00000E+00  9.000E+00
      12     1     6     6     0     0  6.987817579E+01 -2.520852425E+01 -2.811887650E+02  2.908359516E+02  0.000000000E+00  0.00000E+00  9.000E+00
      13     1     5     5     0     0 -7.068251724E+00 -2.860418304E+01 -1.860476188E+02  1.883663343E+02  0.000000000E+00  0.00000E+00  9.000E+00
     -14     1     5     5     0     0  2.534379544E+01 -8.331713184E+01 -1.250229733E+02  1.523640256E+02  3.568322551E-06  0.00000E+00  9.000E+00
       5     1     4     4   507     0  1.316157702E+02 -4.641496890E+01 -2.766489060E+02  3.098939173E+02  4.750000000E+00  0.00000E+00  9.000E+00
      -5     1     3     3     0   501  1.161306560E+01  4.467853855E+01 -6.684777809E+01  8.137704243E+01  4.750000000E+00  0.00000E+00  9.000E+00
       2     1     1     2   511     0 -2.627727427E+02  2.280324549E+02 -4.630960788E+02  5.792290506E+02  0.000000000E+00  0.00000E+00  9.000E+00
#rwgt            2          93  0.38704472811292584                1     5627329           0           1           0
<weights>
0.13550E+02
</weights>
</event>
<event>
     13  10001  1.35503E+01  5.69833E+01 -1.00000E+00  1.35912E-01
      21    -1     0     0   507   501  0.000000000E+00  0.000000000E+00  7.485894323E+02  7.485894323E+02  0.000000000E+00  0.00000E+00  9.000E+00
      21    -1     0     0   512   502  0.000000000E+00  0.000000000E+00 -1.004608189E+02  1.004608189E+02  0.000000000E+00  0.00000E+00  9.000E+00
      -6     2     1     2     0   502  6.456495311E+00  1.672497227E+02  3.094990147E+02  3.918189530E+02  1.723899526E+02  0.00000E+00  9.000E+00
       6     2     1     2   507     0 -6.343796173E+01 -1.667903083E+02  2.944814321E+02  3.851469088E+02  1.725556305E+02  0.00000E+00  9.000E+00
     -24     2     3     3     0     0  6.647125460E+01  7.837918628E+01  1.968444709E+02  2.362125511E+02  8.054128773E+01  0.00000E+00  9.000E+00
      24     2     4     4     0     0 -5.594039844E+01 -1.532327648E+02  1.388268015E+02  2.286510719E+02  7.999264651E+01  0.00000E+00  9.000E+00
     -11     1     6     6     0     0  5.961664151E+00 -9.127130391E+01  9.025861391E+01  1.285013998E+02  0.000000000E+00  0.00000E+00  9.000E+00
      12     1     6     6     0     0 -6.190206259E+01 -6.196146088E+01  4.856818755E+01  1.001496721E+02  2.431401974E-06  0.00000E+00  9.000E+00
      13     1     5     5     0     0  5.455843134E+01  4.488504713E+01  5.375828993E+01  8.877636860E+01  0.000000000E+00  0.00000E+00  9.000E+00
     -14     1     5     5     0     0  1.191282326E+01  3.349413915E+01  1.430861810E+02  1.474361825E+02  1.907348633E-06  0.00000E+00  9.000E+00
       5     1     4     4   507     0 -7.497563288E+00 -1.355754347E+01  1.556546306E+02  1.564958369E+02  4.750000000E+00  0.00000E+00  9.000E+00
      -5     1     3     3     0   502 -6.001475929E+01  8.887053647E+01  1.126545438E+02  1.556064019E+02  4.750000000E+00  0.00000E+00  9.000E+00
      21     1     1     2   512   501  5.698146641E+01 -4.594144875E-01  4.414816660E+01  7.208438937E+01  1.261592536E-06  0.00000E+00  9.000E+00
#rwgt            2         113   2.4249203152909033                1     5642887           0           1           0
<weights>
0.13550E+02
</weights>
</event>
<event>
     15  10001  1.35503E+01  4.97847E+01 -1.00000E+00  4.17919E-01
      21    -1     0     0   511   501  0.000000000E+00  0.000000000E+00  4.329060369E+02  4.329060369E+02  0.000000000E+00  0.00000E+00  9.000E+00
      21    -1     0     0   501   502  0.000000000E+00  0.000000000E+00 -1.573521821E+02  1.573521821E+02  0.000000000E+00  0.00000E+00  9.000E+00
      -6     2     1     2     0   502  9.174754232E+01 -3.229091654E+01 -1.896743612E+01  1.986256601E+02  1.721396945E+02  0.00000E+00  9.000E+00
       6     2     1     2   507     0 -4.196850880E+01  3.154121628E+01  1.281165511E+02  2.179401535E+02  1.683088108E+02  0.00000E+00  9.000E+00
     -24     2     3     3     0     0  7.418614552E+01 -9.756578449E+00  5.333457175E+01  1.205073266E+02  7.796578878E+01  0.00000E+00  9.000E+00
      24     2     4     4     0     0 -1.348162487E+00  5.840639009E+01  2.637807347E+01  1.026301522E+02  8.014999332E+01  0.00000E+00  9.000E+00
     -11     1     6     6     0     0 -1.925681742E+01  5.153384984E+01  4.850673409E+01  7.334484269E+01  0.000000000E+00  0.00000E+00  9.000E+00
      12     1     6     6     0     0  1.790865493E+01  6.872540247E+00 -2.212866062E+01  2.928530949E+01  5.331201500E-07  0.00000E+00  9.000E+00
      13     1     5     5     0     0  4.175632355E+01  4.473736641E+00 -1.413308128E+01  4.430969265E+01  0.000000000E+00  0.00000E+00  9.000E+00
     -14     1     5     5     0     0  3.242982197E+01 -1.423031509E+01  6.746765303E+01  7.619763399E+01  2.336015456E-06  0.00000E+00  9.000E+00
       5     1     4     4   512     0 -2.872074810E+01 -2.590380729E+01  9.196948034E+01  9.988411494E+01  4.750000000E+00  0.00000E+00  9.000E+00
      -5     1     3     3     0   513  1.791366531E+01 -2.152439338E+01 -6.818036505E+01  7.386016243E+01  4.750000000E+00  0.00000E+00  9.000E+00
      21     1     1     2   511   507 -4.977903352E+01  7.497002610E-01  1.664047398E+02  1.736924053E+02  2.697398305E-06  0.00000E+00  9.000E+00
      21     1     4     4   507   512 -1.189959821E+01 -9.613665192E-01  9.768997322E+00  1.542588642E+01  2.064765462E-07  0.00000E+00  9.000E+00
      21     1     3     3   513   502 -3.522685145E-01 -1.009944705E+00 -4.121642822E+00  4.258171082E+00  1.032382731E-07  0.00000E+00  9.000E+00
#rwgt            1          17   50.926733082459748                1     5647694           0       11011           0
<weights>
0.12386E+02
</weights>
</event>
<event>
     14  10001  1.35503E+01  1.46367E+01 -1.00000E+00  7.48789E-01
      21    -1     0     0   507   512  0.000000000E+00  0.000000000E+00  3.389784160E+02  3.389784160E+02  0.000000000E+00  0.00000E+00  9.000E+00
      21    -1     0     0   501   502  0.000000000E+00  0.000000000E+00 -4.333018554E+02  4.333018554E+02  0.000000000E+00  0.00000E+00  9.000E+00
      -6     2     1     2     0   502 -4.276508463E+01  1.051054835E+02 -1.486094908E+02  2.546668120E+02  1.728999399E+02  0.00000E+00  9.000E+00
       6     2     1     2   507     0  3.109279787E+01 -9.627431069E+01 -1.857925018E+02  2.770891497E+02  1.789526144E+02  0.00000E+00  9.000E+00
     -24     2     3     3     0     0 -6.548978829E+01  6.989492399E+01 -3.111422458E+01  1.298313372E+02  8.193819856E+01  0.00000E+00  9.000E+00
      24     2     4     4     0     0  5.944263896E+01  4.580831296E-01 -9.153483355E+01  1.367517332E+02  8.239401436E+01  0.00000E+00  9.000E+00
     -11     1     6     6     0     0  6.485519531E+01  2.226139919E+01 -9.143093119E+01  1.142864009E+02  0.000000000E+00  0.00000E+00  9.000E+00
      12     1     6     6     0     0 -5.412556347E+00 -2.180331606E+01 -1.039023571E-01  2.246533225E+01  5.821354657E-07  0.00000E+00  9.000E+00
      13     1     5     5     0     0  3.855218044E-01 -2.346502521E+00  1.956552934E+01  1.970950632E+01  0.000000000E+00  0.00000E+00  9.000E+00
     -14     1     5     5     0     0 -6.587531010E+01  7.224142651E+01 -5.067975392E+01  1.101218309E+02  9.536743164E-07  0.00000E+00  9.000E+00
       5     1     4     4   511     0 -3.230238851E+01 -9.051364881E+01 -8.414205589E+01  1.278225841E+02  4.750000000E+00  0.00000E+00  9.000E+00
      -5     1     3     3     0   502  2.272470367E+01  3.521055956E+01 -1.174952662E+02  1.248354747E+02  4.750000000E+00  0.00000E+00  9.000E+00
      21     1     1     2   501   512  1.167228676E+01 -8.831172857E+00  2.400785532E+02  2.405243098E+02  4.672030912E-06  0.00000E+00  9.000E+00
      21     1     4     4   507   511  3.952547411E+00 -6.218745007E+00 -1.011561231E+01  1.251483252E+01  1.685873940E-07  0.00000E+00  9.000E+00
#rwgt            1          17   2.9816358178243707                1     5655367           0         110           0
<weights>
0.13866E+02
</weights>
</event>
<event>
     14  10001  1.35503E+01  6.83938E+00 -1.00000E+00  1.55629E-01
       1    -1     0     0   502     0  0.000000000E+00  0.000000000E+00  3.734952270E+01  3.734952270E+01  0.000000000E+00  0.00000E+00  9.000E+00
      21    -1     0     0   507   502  0.000000000E+00  0.000000000E+00 -1.926885865E+03  1.926885865E+03  0.000000000E+00  0.00000E+00  9.000E+00
      -6     2     1     2     0   501 -1.150143925E+02 -4.554474591E+01 -6.533557141E+02  6.886826034E+02  1.791853921E+02  0.00000E+00  9.000E+00
       6     2     1     2   507     0  1.081784672E+02  4.576224673E+01 -1.246149657E+03  1.263463172E+03  1.722017873E+02  0.00000E+00  9.000E+00
     -24     2     3     3     0     0 -7.367296038E+01 -9.114485393E+01 -4.851232016E+02  5.054785371E+02  8.018067898E+01  0.00000E+00  9.000E+00
      24     2     4     4     0     0  4.784020804E+01  3.733868362E+01 -3.115503451E+02  3.268682232E+02  7.807915861E+01  0.00000E+00  9.000E+00
     -11     1     6     6     0     0  4.091370114E+01  9.214943814E+00 -2.833718427E+02  2.864584566E+02  0.000000000E+00  0.00000E+00  9.000E+00
      12     1     6     6     0     0  6.926506903E+00  2.812373981E+01 -2.817850241E+01  4.040976660E+01  1.215700987E-06  0.00000E+00  9.000E+00
      13     1     5     5     0     0 -7.880380421E+01 -6.832921141E+01 -4.577196166E+02  4.694530521E+02  0.000000000E+00  0.00000E+00  9.000E+00
     -14     1     5     5     0     0  5.130843837E+00 -2.281564253E+01 -2.740358501E+01  3.602548506E+01  7.539457465E-07  0.00000E+00  9.000E+00
       5     1     4     4   507     0  6.033825914E+01  8.423563109E+00 -9.345993122E+02  9.365949492E+02  4.750000000E+00  0.00000E+00  9.000E+00
      -5     1     3     3     0   511 -4.685118621E+01  3.111177398E+01 -1.215337970E+02  1.340000091E+02  4.750000000E+00  0.00000E+00  9.000E+00
      21     1     3     3   511   501  5.509754048E+00  1.448833405E+01 -4.669871545E+01  4.920405712E+01  9.536743164E-07  0.00000E+00  9.000E+00
       1     1     1     2   501     0  6.835925353E+00 -2.175008233E-01  9.969028944E+00  1.208961207E+01  0.000000000E+00  0.00000E+00  9.000E+00
#rwgt            1          17   77.355446251976247                1     5662371           0        1101           0
<weights>
0.13039E+02
</weights>
</event>
<event>
     15  10001  1.35503E+01  3.46024E+01 -1.00000E+00  6.15911E-01
      21    -1     0     0   502   512  0.000000000E+00  0.000000000E+00  1.473389435E+02  1.473389435E+02  0.000000000E+00  0.00000E+00  9.000E+00
      21    -1     0     0   507   502  0.000000000E+00  0.000000000E+00 -7.382707195E+02  7.382707195E+02  0.000000000E+00  0.00000E+00  9.000E+00
      -6     2     1     2     0   501  3.285700756E+00  5.986777102E+00  6.194947026E+01  1.842161611E+02  1.733528766E+02  0.00000E+00  9.000E+00
       6     2     1     2   507     0 -3.514050697E+01 -1.949963354E+01 -3.647481223E+02  4.111900853E+02  1.855289804E+02  0.00000E+00  9.000E+00
     -24     2     3     3     0     0 -1.481177806E+01  1.508352471E+01 -3.087413535E+01  8.880590676E+01  8.053803670E+01  0.00000E+00  9.000E+00
      24     2     4     4     0     0 -1.167822998E+01  6.066223352E+01 -2.292438566E+02  2.509772653E+02  8.136678834E+01  0.00000E+00  9.000E+00
     -11     1     6     6     0     0  2.502787881E+01  2.414337180E+01 -1.641939610E+02  1.678360925E+02  0.000000000E+00  0.00000E+00  9.000E+00
      12     1     6     6     0     0 -3.670610879E+01  3.651886172E+01 -6.504989560E+01  8.314117273E+01  9.536743164E-07  0.00000E+00  9.000E+00
      13     1     5     5     0     0  2.131715387E+01 -1.659990489E+01  6.664745391E+00  2.782798452E+01  0.000000000E+00  0.00000E+00  9.000E+00
     -14     1     5     5     0     0 -3.612893193E+01  3.168342960E+01 -3.753888074E+01  6.097792224E+01  8.259061849E-07  0.00000E+00  9.000E+00
       5     1     4     4   511     0 -2.153628228E+01 -7.182289392E+01 -1.091913210E+02  1.325429992E+02  4.750000000E+00  0.00000E+00  9.000E+00
      -5     1     3     3     0   514  1.874940225E+01 -9.017937061E+00  9.108927682E+01  9.355577013E+01  4.750000000E+00  0.00000E+00  9.000E+00
      21     1     1     2   501   512  3.185480621E+01  1.351285644E+01 -2.881331239E+02  2.902034167E+02  7.629394531E-06  0.00000E+00  9.000E+00
      21     1     4     4   507   511 -1.925994706E+00 -8.338973142E+00 -2.631294468E+01  2.766982086E+01  0.000000000E+00  0.00000E+00  9.000E+00
      21     1     3     3   514   501 -6.519234271E-01 -7.881054550E-02  1.734328789E+00  1.854484189E+00  4.712160915E-08  0.00000E+00  9.000E+00
#rwgt            1          17   9.7208418679581641                1     5672283           0       11011           0
<weights>
-.11470E+02
</weights>
</event>
<event>
     14  10001  1.35503E+01  2.97266E+01 -1.00000E+00  7.48176E-01
      21    -1     0     0   502   511  0.000000000E+00  0.000000000E+00  1.590309799E+03  1.590309799E+03  0.000000000E+00  0.00000E+00  9.000E+00
      21    -1     0     0   507   502  0.000000000E+00  0.000000000E+00 -5.919200385E+01  5.919200385E+01  0.000000000E+00  0.00000E+00  9.000E+00
      -6     2     1     2     0   501  5.442767582E+01  1.482417684E+02  9.072600288E+02  9.368351580E+02  1.720504563E+02  0.00000E+00  9.000E+00
       6     2     1     2   507     0 -8.193540361E+01 -1.595110109E+02  6.338763715E+02  6.812971790E+02  1.738085693E+02  0.00000E+00  9.000E+00
     -24     2     3     3     0     0  9.823832592E+01  7.989212650E+01  6.701429216E+02  6.861598069E+02  7.543357775E+01  0.00000E+00  9.000E+00
      24     2     4     4     0     0  1.857108824E+01 -4.441609771E+01  2.307211670E+02  2.499313493E+02  8.316097296E+01  0.00000E+00  9.000E+00
     -11     1     6     6     0     0 -6.873467958E+00  2.073086951E+01  9.224438382E+01  9.479472484E+01  0.000000000E+00  0.00000E+00  9.000E+00
      12     1     6     6     0     0  2.544455620E+01 -6.514696721E+01  1.384767831E+02  1.551366244E+02  4.264961200E-06  0.00000E+00  9.000E+00
      13     1     5     5     0     0  1.757361264E+01  6.148309012E+01  3.258126983E+02  3.320284876E+02  0.000000000E+00  0.00000E+00  9.000E+00
     -14     1     5     5     0     0  8.066471328E+01  1.840903639E+01  3.443302233E+02  3.541313193E+02  8.529922400E-06  0.00000E+00  9.000E+00
       5     1     4     4   512     0 -8.122012838E+01 -9.613737927E+01  3.437283811E+02  3.660749479E+02  4.750000000E+00  0.00000E+00  9.000E+00
      -5     1     3     3     0   501 -4.381065010E+01  6.834964186E+01  2.371171072E+02  2.506753511E+02  4.750000000E+00  0.00000E+00  9.000E+00
      21     1     1     2   501   511  2.750772779E+01  1.126924255E+01 -1.001860549E+01  3.136946559E+01  9.386548846E-07  0.00000E+00  9.000E+00
      21     1     4     4   507   512 -1.928636347E+01 -1.895753394E+01  5.942682340E+01  6.529088182E+01  1.168007728E-06  0.00000E+00  9.000E+00
#rwgt            1          17   30.259328352554753                1     5682600           0         110           0
<weights>
0.15186E+02
</weights>
</event>
<event>
     15  10001  1.35503E+01  6.32370E+01 -1.00000E+00  2.93442E-01
      21    -1     0     0   507   501  0.000000000E+00  0.000000000E+00  6.228412410E+02  6.228412410E+02  0.000000000E+00  0.00000E+00  9.000E+00
      21    -1     0     0   501   512  0.000000000E+00  0.000000000E+00 -4.478250016E+02  4.478250016E+02  0.000000000E+00  0.00000E+00  9.000E+00
      -6     2     1     2     0   502 -2.566144474E+02 -2.515896246E+02  4.259911157E+01  4.014124624E+02  1.736921611E+02  0.00000E+00  9.000E+00
       6     2     1     2   507     0  3.163257630E+02  2.307695629E+02  2.785151670E+02  5.100571934E+02  1.710878805E+02  0.00000E+00  9.000E+00
     -24     2     3     3     0     0 -1.928981647E+02 -1.028497311E+02  1.262594773E-01  2.331116951E+02  8.095231501E+01  0.00000E+00  9.000E+00
      24     2     4     4     0     0  3.253006317E+02  2.121449993E+02  2.387097982E+02  4.628619271E+02  8.020470092E+01  0.00000E+00  9.000E+00
     -11     1     6     6     0     0  1.449727581E+02  6.289263210E+01  6.279149512E+01  1.700451576E+02  0.000000000E+00  0.00000E+00  9.000E+00
      12     1     6     6     0     0  1.803278736E+02  1.492523672E+02  1.759183031E+02  2.928167695E+02  3.814697266E-06  0.00000E+00  9.000E+00
      13     1     5     5     0     0 -9.574083879E+00  8.269795233E+00  1.327390317E+01  1.833709630E+01  0.000000000E+00  0.00000E+00  9.000E+00
     -14     1     5     5     0     0 -1.833240808E+02 -1.111195263E+02 -1.314764370E+01  2.147745988E+02  6.007958969E-06  0.00000E+00  9.000E+00
       5     1     4     4   511     0 -9.352191841E+00  1.976164644E+01  4.013770332E+01  4.595197373E+01  4.750000000E+00  0.00000E+00  9.000E+00
      -5     1     3     3     0   513 -5.849250339E+01 -1.449506026E+02  4.026721881E+01  1.614808396E+02  4.750000000E+00  0.00000E+00  9.000E+00
      21     1     1     2   502   512 -5.971131556E+01  2.082006173E+01 -1.460980392E+02  1.591965868E+02  1.907348633E-06  0.00000E+00  9.000E+00
      21     1     4     4   507   511  3.773230914E-01 -1.137082884E+00 -3.323345546E-01  1.243292587E+00  1.641243009E-07  0.00000E+00  9.000E+00
      21     1     3     3   513   502 -5.223779349E+00 -3.789290898E+00  2.205633289E+00  6.819927742E+00  8.940696716E-08  0.00000E+00  9.000E+00
#rwgt            1          17   7.0959058135797077                1     5693617           0       11011           0
<weights>
0.10862E+02
</weights>
</event>
<event>
     14  10001 -1.35503E+01  4.17793E+01 -1.00000E+00  7.49546E-01
      21    -1     0     0   507   511  0.000000000E+00  0.000000000E+00  2.374046024E+02  2.374046024E+02  0.000000000E+00  0.00000E+00  9.000E+00
      21    -1     0     0   501   502  0.000000000E+00  0.000000000E+00 -2.406787243E+02  2.406787243E+02  0.000000000E+00  0.00000E+00  9.000E+00
      -6     2     1     2     0   502  6.763173699E+01  3.685553341E+01 -1.174343279E+02  2.252410504E+02  1.760974935E+02  0.00000E+00  9.000E+00
       6     2     1     2   507     0 -3.083753200E+01 -5.664678407E+01  9.057368406E+01  2.048648739E+02  1.720645600E+02  0.00000E+00  9.000E+00
     -24     2     3     3     0     0  4.731876006E+01 -4.112685421E+01 -1.006823514E+02  1.427967599E+02  7.952040985E+01  0.00000E+00  9.000E+00
      24     2     4     4     0     0 -7.737695787E+01 -5.491631893E+01  9.356217331E+01  1.561895017E+02  8.147566791E+01  0.00000E+00  9.000E+00
     -11     1     6     6     0     0 -4.658237896E+01  1.475800665E+01  3.505526849E+01  6.013807978E+01  0.000000000E+00  0.00000E+00  9.000E+00
      12     1     6     6     0     0 -3.079457891E+01 -6.967432558E+01  5.850690482E+01  9.605142189E+01  2.023048729E-06  0.00000E+00  9.000E+00
      13     1     5     5     0     0 -2.002364112E+00  2.085386061E+01 -3.028688133E+01  3.682645985E+01  0.000000000E+00  0.00000E+00  9.000E+00
     -14     1     5     5     0     0  4.932112417E+01 -6.198071482E+01 -7.039547005E+01  1.059703001E+02  1.348699152E-06  0.00000E+00  9.000E+00
       5     1     4     4   512     0  4.268357475E+01 -5.368402784E+00 -2.764877124E+00  4.336950942E+01  4.750000000E+00  0.00000E+00  9.000E+00
      -5     1     3     3     0   502  2.031297693E+01  7.798238762E+01 -1.675197651E+01  8.244429045E+01  4.750000000E+00  0.00000E+00  9.000E+00
      21     1     1     2   501   511 -3.679420499E+01  1.979125066E+01  2.358652186E+01  4.797740235E+01  1.118282261E-06  0.00000E+00  9.000E+00
      21     1     4     4   507   512  3.855851116E+00  3.637937640E+00 -2.236121226E-01  5.305862841E+00  9.185692672E-08  0.00000E+00  9.000E+00
#rwgt            1          17  -16.023213962120789                1     5702274           0         110           0
<weights>
-.11401E+02
</weights>
</event>
<event>
     15  10001  1.35503E+01  8.39857E+01 -1.00000E+00  2.06437E-01
      21    -1     0     0   502   512  0.000000000E+00  0.000000000E+00  7.917766164E+02  7.917766164E+02  0.000000000E+00  0.00000E+00  9.000E+00
      21    -1     0     0   507   502  0.000000000E+00  0.000000000E+00 -1.391597474E+02  1.391597474E+02  0.000000000E+00  0.00000E+00  9.000E+00
      -6     2     1     2     0   501  1.673477520E+02 -8.942386046E+00  4.978400426E+02  5.531930239E+02  1.734721226E+02  0.00000E+00  9.000E+00
       6     2     1     2   507     0 -8.429192578E+01 -3.520725917E+00 -1.033590845E+01  1.924980575E+02  1.727169559E+02  0.00000E+00  9.000E+00
     -24     2     3     3     0     0  1.625224742E+01 -2.445213621E+01  1.808934883E+02  2.015341358E+02  8.385410719E+01  0.00000E+00  9.000E+00
      24     2     4     4     0     0 -9.257590952E+01  1.460616278E+01  4.542127497E+01  1.321696026E+02  8.137611822E+01  0.00000E+00  9.000E+00
     -11     1     6     6     0     0 -1.533948664E+01  3.963518122E+01  2.087287811E+01  4.734896495E+01  0.000000000E+00  0.00000E+00  9.000E+00
      12     1     6     6     0     0 -7.723642287E+01 -2.502901844E+01  2.454839686E+01  8.482063765E+01  9.536743164E-07  0.00000E+00  9.000E+00
      13     1     5     5     0     0  3.801986482E+01  1.419321472E+01  1.163097201E+02  1.231864784E+02  0.000000000E+00  0.00000E+00  9.000E+00
     -14     1     5     5     0     0 -2.176761740E+01 -3.864535092E+01  6.458376814E+01  7.834765741E+01  9.536743164E-07  0.00000E+00  9.000E+00
       5     1     4     4   514     0  7.695495468E+00 -1.928404878E+01 -4.871696743E+01  5.316954583E+01  4.750000000E+00  0.00000E+00  9.000E+00
      -5     1     3     3     0   511  9.801688943E+01  5.555813738E+00  2.001472342E+02  2.229790473E+02  4.750000000E+00  0.00000E+00  9.000E+00
      21     1     1     2   501   512 -8.305582626E+01  1.246311196E+01  1.651127349E+02  1.852452824E+02  2.697398305E-06  0.00000E+00  9.000E+00
      21     1     3     3   511   501  5.307861519E+01  9.953936422E+00  1.167993202E+02  1.286798408E+02  1.907348633E-06  0.00000E+00  9.000E+00
      21     1     4     4   507   514  5.884882640E-01  1.157160082E+00 -7.040215981E+00  7.158909062E+00  1.460009660E-07  0.00000E+00  9.000E+00
#rwgt            1          17   64.170935754880745                1     5712561           0       11110           0
<weights>
0.12734E+02
</weights>
</event>
<event>
     14  10001  1.35503E+01  6.10998E+01 -1.00000E+00  3.22747E-01
      21    -1     0     0   511   501  0.000000000E+00  0.000000000E+00  2.584416472E+02  2.584416472E+02  0.000000000E+00  0.00000E+00  9.000E+00
      21    -1     0     0   507   502  0.000000000E+00  0.000000000E+00 -4.902148530E+02  4.902148530E+02  0.000000000E+00  0.00000E+00  9.000E+00
      -6     2     1     2     0   501 -6.394543498E+01  1.119624174E+02  5.407967052E+00  2.142904030E+02  1.710746303E+02  0.00000E+00  9.000E+00
       6     2     1     2   507     0  1.117236821E+02 -1.500468636E+02  3.313492614E+01  2.572307885E+02  1.734171641E+02  0.00000E+00  9.000E+00
     -24     2     3     3     0     0 -1.238893587E+01  1.178213382E+01  4.606866840E+01  9.430931560E+01  8.049608929E+01  0.00000E+00  9.000E+00
      24     2     4     4     0     0  7.702254348E+01 -1.064685102E+01 -6.329930338E+00  1.081785496E+02  7.494466581E+01  0.00000E+00  9.000E+00
     -11     1     6     6     0     0  3.183735409E+00  8.529019532E+00 -2.753266392E+01  2.899875735E+01  0.000000000E+00  0.00000E+00  9.000E+00
      12     1     6     6     0     0  7.383880807E+01 -1.917587056E+01  2.120273358E+01  7.917979225E+01  1.039242493E-06  0.00000E+00  9.000E+00
      13     1     5     5     0     0 -3.967387575E+01  1.010400388E+01  5.215423787E+01  6.630363368E+01  0.000000000E+00  0.00000E+00  9.000E+00
     -14     1     5     5     0     0  2.728493988E+01  1.678129945E+00 -6.085569468E+00  2.800568192E+01  7.862392639E-07  0.00000E+00  9.000E+00
       5     1     4     4   507     0  3.470113862E+01 -1.394000126E+02  3.946485648E+01  1.490522389E+02  4.750000000E+00  0.00000E+00  9.000E+00
      -5     1     3     3     0   512 -3.966757228E+01  8.016907409E+01 -3.343442717E+01  9.560868241E+01  4.750000000E+00  0.00000E+00  9.000E+00
      21     1     1     2   511   502 -4.777824713E+01  3.808444621E+01 -2.703160990E+02  2.771353087E+02  8.529922400E-06  0.00000E+00  9.000E+00
      21     1     3     3   512   501 -1.188892682E+01  2.001120947E+01 -7.226274173E+00  2.437240497E+01  1.884864366E-07  0.00000E+00  9.000E+00
#rwgt            1          17   3.9456823958031566                1     5718390           0         111           0
<weights>
0.17237E+02
</weights>
</event>
<event>
     15  10001  1.35503E+01  4.76449E+00 -1.00000E+00  2.43899E-01
      21    -1     0     0   502   501  0.000000000E+00  0.000000000E+00  9.376328879E+02  9.376328879E+02  0.000000000E+00  0.00000E+00  9.000E+00
      21    -1     0     0   507   513  0.000000000E+00  0.000000000E+00 -2.810207600E+02  2.810207600E+02  0.000000000E+00  0.00000E+00  9.000E+00
      -6     2     1     2     0   501  2.220097761E+01  4.944218733E+01  8.414776840E+02  8.615555032E+02  1.767930407E+02  0.00000E+00  9.000E+00
       6     2     1     2   507     0 -2.657913661E+01 -4.756279970E+01 -8.900315469E+00  1.810684135E+02  1.724467579E+02  0.00000E+00  9.000E+00
     -24     2     3     3     0     0  2.572810363E+01  4.904193236E+01  2.388559776E+02  2.584743444E+02  8.179096646E+01  0.00000E+00  9.000E+00
      24     2     4     4     0     0 -6.453470850E+00  7.574737202E+00 -5.958478667E+01  1.008280092E+02  8.072742232E+01  0.00000E+00  9.000E+00
     -11     1     6     6     0     0  6.486716541E+00  3.587481564E+01 -5.941643683E+01  6.970934553E+01  0.000000000E+00  0.00000E+00  9.000E+00
      12     1     6     6     0     0 -1.294018739E+01 -2.830007844E+01 -1.683498371E-01  3.111866371E+01  2.335901093E-06  0.00000E+00  9.000E+00
      13     1     5     5     0     0 -2.705448712E+01  3.482055627E+01  1.043282677E+02  1.132643097E+02  0.000000000E+00  0.00000E+00  9.000E+00
     -14     1     5     5     0     0  5.278259075E+01  1.422137609E+01  1.345277099E+02  1.452100347E+02  1.907348633E-06  0.00000E+00  9.000E+00
       5     1     4     4   512     0  1.132585850E+00 -1.970838561E+01  2.202563804E+01  2.995654261E+01  4.750000000E+00  0.00000E+00  9.000E+00
      -5     1     3     3     0   511 -6.209273904E+00  1.611768607E+00  5.921483595E+02  5.922021573E+02  4.750000000E+00  0.00000E+00  9.000E+00
      21     1     4     4   507   512 -2.125825161E+01 -3.542915129E+01  2.865883316E+01  5.028386163E+01  2.360223517E-06  0.00000E+00  9.000E+00
      21     1     3     3   511   501  2.682147887E+00 -1.211513642E+00  1.047334680E+01  1.087900160E+01  0.000000000E+00  0.00000E+00  9.000E+00
      21     1     1     2   502   513  4.378158992E+00 -1.879387634E+00 -1.759652406E+02  1.760297312E+02  0.000000000E+00  0.00000E+00  9.000E+00
#rwgt            1          17   139.35778319186454                1     5730764           0      101101           0
<weights>
0.12953E+02
</weights>
</event>
<event>
     14  10001  1.35503E+01  1.48477E+02 -1.00000E+00  7.52101E-01
      21    -1     0     0   511   501  0.000000000E+00  0.000000000E+00  6.484098309E+02  6.484098309E+02  0.000000000E+00  0.00000E+00  9.000E+00
      21    -1     0     0   501   502  0.000000000E+00  0.000000000E+00 -1.487392318E+02  1.487392318E+02  0.000000000E+00  0.00000E+00  9.000E+00
      -6     2     1     2     0   502  2.784276360E+01  1.191824327E+01  2.044531579E+01  1.751813030E+02  1.713277968E+02  0.00000E+00  9.000E+00
       6     2     1     2   507     0 -1.414376186E+02 -1.075296424E+02  3.102295163E+02  3.970124308E+02  1.726536807E+02  0.00000E+00  9.000E+00
     -24     2     3     3     0     0  1.306153341E+00  4.905838596E+01 -3.766213611E+01  1.011365844E+02  8.001088010E+01  0.00000E+00  9.000E+00
      24     2     4     4     0     0 -1.598570101E+02 -5.123494858E+01  2.426816267E+02  3.057638445E+02  8.011162853E+01  0.00000E+00  9.000E+00
     -11     1     6     6     0     0 -1.061126160E+01  1.748489424E+01  1.693614718E+01  2.655472614E+01  0.000000000E+00  0.00000E+00  9.000E+00
      12     1     6     6     0     0 -1.492457485E+02 -6.871984282E+01  2.257454796E+02  2.792091184E+02  0.000000000E+00  0.00000E+00  9.000E+00
      13     1     5     5     0     0  2.908490834E+01  1.422652855E+01  1.189805688E+01  3.449477882E+01  0.000000000E+00  0.00000E+00  9.000E+00
     -14     1     5     5     0     0 -2.777875500E+01  3.483185741E+01 -4.956019299E+01  6.664180557E+01  1.907348633E-06  0.00000E+00  9.000E+00
       5     1     4     4   512     0  1.120063847E+01 -4.515975028E+01  5.967399566E+01  7.581824058E+01  4.750000000E+00  0.00000E+00  9.000E+00
      -5     1     3     3     0   502  2.653661026E+01 -3.714014269E+01  5.810745190E+01  7.404471858E+01  4.750000000E+00  0.00000E+00  9.000E+00
      21     1     1     2   511   507  1.135948550E+02  9.561139915E+01  1.689957670E+02  2.249553289E+02  5.046370146E-06  0.00000E+00  9.000E+00
      21     1     4     4   507   512  7.218752989E+00 -1.113494356E+01  7.873893881E+00  1.543034568E+01  7.586432732E-07  0.00000E+00  9.000E+00
#rwgt            1          17   21.942644550785719                1     5740333           0         110           0
<weights>
0.15254E+02
</weights>
</event>
<event>
     15  10001  1.35503E+01  2.20040E+01 -1.00000E+00  2.11716E-01
      21    -1     0     0   502   501  0.000000000E+00  0.000000000E+00  3.977624042E+02  3.977624042E+02  0.000000000E+00  0.00000E+00  9.000E+00
       2    -1     0     0   507     0  0.000000000E+00  0.000000000E+00 -1.283304471E+03  1.283304471E+03  0.000000000E+00  0.00000E+00  9.000E+00
      -6     2     1     2     0   501  5.554046823E+01  2.955356781E+01  3.250246089E+02  3.734316395E+02  1.727774176E+02  0.00000E+00  9.000E+00
       6     2     1     2   507     0 -7.253347757E+01 -4.353254578E+01 -1.411512532E+02  2.379934638E+02  1.719331982E+02  0.00000E+00  9.000E+00
     -24     2     3     3     0     0 -1.086415143E+01 -6.643326020E+00  7.245403248E+01  1.078347827E+02  7.884535484E+01  0.00000E+00  9.000E+00
      24     2     4     4     0     0 -4.375984488E+01 -1.959946559E+01 -1.664730501E+02  1.911438948E+02  8.076910939E+01  0.00000E+00  9.000E+00
     -11     1     6     6     0     0 -5.497228830E+00 -4.256731780E+01 -4.720672012E+01  6.380180635E+01  0.000000000E+00  0.00000E+00  9.000E+00
      12     1     6     6     0     0 -3.826261605E+01  2.296785221E+01 -1.192663300E+02  1.273420884E+02  3.015782986E-06  0.00000E+00  9.000E+00
      13     1     5     5     0     0 -4.156839103E+01 -1.808466222E+01  5.294325331E+01  6.969916937E+01  0.000000000E+00  0.00000E+00  9.000E+00
     -14     1     5     5     0     0  3.070423960E+01  1.144133620E+01  1.951077917E+01  3.813561337E+01  7.907449699E-07  0.00000E+00  9.000E+00
       5     1     4     4   512     0 -2.481574126E+01 -1.446054777E+01  1.962334456E+01  3.510792799E+01  4.750000000E+00  0.00000E+00  9.000E+00
      -5     1     3     3     0   511  6.803003365E+01  3.697851677E+01  2.520522135E+02  2.637202628E+02  4.750000000E+00  0.00000E+00  9.000E+00
       2     1     1     2   502     0  1.699300934E+01  1.397897796E+01 -1.069415423E+03  1.069641772E+03  0.000000000E+00  0.00000E+00  9.000E+00
      21     1     3     3   511   501 -1.625413983E+00 -7.816229401E-01  5.183629645E-01  1.876594042E+00  6.537857940E-08  0.00000E+00  9.000E+00
      21     1     4     4   507   512 -3.957891437E+00 -9.472532419E+00  5.698452378E+00  1.174164105E+01  3.674277069E-07  0.00000E+00  9.000E+00
#rwgt            1          17   16.797729443754950                1     5747649           0       11110           0
<weights>
0.14974E+02
</weights>
</event>
<event>
     15  10001  1.35503E+01  4.30752E+01 -1.00000E+00  1.86502E-01
      21    -1     0     0   511   501  0.000000000E+00  0.000000000E+00  1.241216374E+02  1.241216374E+02  0.000000000E+00  0.00000E+00  9.000E+00
      21    -1     0     0   501   502  0.000000000E+00  0.000000000E+00 -3.799078822E+02  3.799078822E+02  0.000000000E+00  0.00000E+00  9.000E+00
      -6     2     1     2     0   502 -7.011703528E+01 -4.623847373E+01 -1.366263793E+02  2.341270149E+02  1.705705029E+02  0.00000E+00  9.000E+00
       6     2     1     2   507     0  2.762504195E+01  5.330253217E+01 -1.269271498E+02  2.261326392E+02  1.772601655E+02  0.00000E+00  9.000E+00
     -24     2     3     3     0     0 -9.670964176E+00  2.965796776E+01 -1.091394205E+02  1.320101532E+02  6.739543626E+01  0.00000E+00  9.000E+00
      24     2     4     4     0     0  4.445330254E+01  5.381320845E+01 -1.465699657E+01  1.073848457E+02  8.027901366E+01  0.00000E+00  9.000E+00
     -11     1     6     6     0     0 -1.498606532E+00  3.787658582E+01 -3.779125039E+01  5.352625693E+01  0.000000000E+00  0.00000E+00  9.000E+00
      12     1     6     6     0     0  4.595190907E+01  1.593662263E+01  2.313425382E+01  5.385858880E+01  1.348699152E-06  0.00000E+00  9.000E+00
      13     1     5     5     0     0 -2.636351973E+01  8.992489128E+00 -1.035710150E+01  2.971816927E+01  0.000000000E+00  0.00000E+00  9.000E+00
     -14     1     5     5     0     0  1.669255555E+01  2.066547863E+01 -9.878231904E+01  1.022919839E+02  0.000000000E+00  0.00000E+00  9.000E+00
       5     1     4     4   513     0 -1.628220277E+01 -1.078955508E+01 -1.028451620E+02  1.047912900E+02  4.750000000E+00  0.00000E+00  9.000E+00
      -5     1     3     3     0   512 -4.172115350E+01 -4.945648852E+01 -2.532560395E+01  6.964587297E+01  4.750000000E+00  0.00000E+00  9.000E+00
      21     1     1     2   511   507  4.249199334E+01 -7.064058440E+00  7.767284329E+00  4.376986549E+01  6.419616708E-07  0.00000E+00  9.000E+00
      21     1     3     3   512   502 -1.872491761E+01 -2.643995297E+01 -2.161354825E+00  3.247098870E+01  5.170509688E-07  0.00000E+00  9.000E+00
      21     1     4     4   507   513 -5.460578199E-01  1.027887880E+01 -9.424991265E+00  1.395650346E+01  0.000000000E+00  0.00000E+00  9.000E+00
#rwgt            1          17   40.619557602958771                1     5753561           0       11110           0
<weights>
0.13696E+02
</weights>
</event>
<event>
     15  10001  1.35503E+01  1.50853E+01 -1.00000E+00  2.04123E-01
       2    -1     0     0   502     0  0.000000000E+00  0.000000000E+00  1.440930882E+03  1.440930882E+03  0.000000000E+00  0.00000E+00  9.000E+00
      21    -1     0     0   511   502  0.000000000E+00  0.000000000E+00 -6.065561255E+01  6.065561255E+01  0.000000000E+00  0.00000E+00  9.000E+00
      -6     2     1     2     0   507  4.206496429E+01  3.070400441E+01  4.506716164E+02  4.852696481E+02  1.722484495E+02  0.00000E+00  9.000E+00
       6     2     1     2   507     0 -2.698160382E+01 -3.045904342E+01  9.632360144E+02  9.794562503E+02  1.727864769E+02  0.00000E+00  9.000E+00
     -24     2     3     3     0     0 -2.911588511E+01  4.202225540E+01  3.140921973E+02  3.277760077E+02  7.854678908E+01  0.00000E+00  9.000E+00
      24     2     4     4     0     0 -5.294696239E+00  4.020077729E+01  3.819571222E+02  3.930127832E+02  8.320858287E+01  0.00000E+00  9.000E+00
     -11     1     6     6     0     0  2.852629536E+01 -9.457661869E+00  1.729367951E+02  1.755287212E+02  0.000000000E+00  0.00000E+00  9.000E+00
      12     1     6     6     0     0 -3.382099160E+01  4.965843915E+01  2.090203272E+02  2.174840620E+02  4.672030912E-06  0.00000E+00  9.000E+00
      13     1     5     5     0     0  1.798423807E+01 -1.000812239E+01  4.190779692E+01  4.668895775E+01  0.000000000E+00  0.00000E+00  9.000E+00
     -14     1     5     5     0     0 -4.710012317E+01  5.203037779E+01  2.721844004E+02  2.810870499E+02  3.814697266E-06  0.00000E+00  9.000E+00
       5     1     4     4   512     0 -1.044632942E+01 -3.328255006E+01  3.629309322E+02  3.646344443E+02  4.750000000E+00  0.00000E+00  9.000E+00
      -5     1     3     3     0   514  6.938160320E+01 -1.743418101E+01  1.207850117E+02  1.404611657E+02  4.750000000E+00  0.00000E+00  9.000E+00
      21     1     4     4   507   512 -1.124057815E+01 -3.737727065E+01  2.183479600E+02  2.218090228E+02  2.697398305E-06  0.00000E+00  9.000E+00
       2     1     1     2   511     0 -1.508336048E+01 -2.449609906E-01 -3.363236172E+01  3.686059582E+01  0.000000000E+00  0.00000E+00  9.000E+00
      21     1     3     3   514   507  1.799246200E+00  6.115930021E+00  1.579440747E+01  1.703247470E+01  1.685873940E-07  0.00000E+00  9.000E+00
#rwgt            1           8  0.79248424439891008                1     5757481           0      100111           0
<weights>
0.12240E+02
</weights>
</event>
<event>
     15  10001  1.35503E+01  2.45620E+01 -1.00000E+00  3.14712E-01
      21    -1     0     0   507   512  0.000000000E+00  0.000000000E+00  3.075722141E+03  3.075722141E+03  0.000000000E+00  0.00000E+00  9.000E+00
      21    -1     0     0   501   502  0.000000000E+00  0.000000000E+00 -2.585266515E+01  2.585266515E+01  0.000000000E+00  0.00000E+00  9.000E+00
      -6     2     1     2     0   502  2.507969519E+01 -3.225524639E+01  5.529204428E+02  5.805109813E+02  1.720540362E+02  0.00000E+00  9.000E+00
       6     2     1     2   507     0 -1.906053493E+01  5.606829618E+01  2.487852169E+03  2.494871373E+03  1.773916359E+02  0.00000E+00  9.000E+00
     -24     2     3     3     0     0 -3.972002405E+01 -1.483580123E+01  4.306564059E+02  4.405617961E+02  8.265576180E+01  0.00000E+00  9.000E+00
      24     2     4     4     0     0 -4.343823802E+01 -2.058786640E+01  1.627594055E+03  1.630296962E+03  8.059179510E+01  0.00000E+00  9.000E+00
     -11     1     6     6     0     0  1.255656704E+01  6.900449458E+00  8.765071573E+02  8.766242527E+02  0.000000000E+00  0.00000E+00  9.000E+00
      12     1     6     6     0     0 -5.599480506E+01 -2.748831585E+01  7.510868975E+02  7.536727097E+02  1.078959322E-05  0.00000E+00  9.000E+00
      13     1     5     5     0     0  2.041273141E+00  1.385748783E+01  1.087382427E+01  1.773236643E+01  0.000000000E+00  0.00000E+00  9.000E+00
     -14     1     5     5     0     0 -4.176129719E+01 -2.869328906E+01  4.197825816E+02  4.228294297E+02  5.394796609E-06  0.00000E+00  9.000E+00
       5     1     4     4   511     0  8.547236350E+00  2.314986544E+01  4.268538655E+02  4.275929799E+02  4.750000000E+00  0.00000E+00  9.000E+00
      -5     1     3     3     0   513  6.031050538E+01 -1.684962389E+01  1.074150433E+02  1.244259656E+02  4.750000000E+00  0.00000E+00  9.000E+00
      21     1     4     4   507   511  1.583046674E+01  5.350629713E+01  4.334042490E+02  4.369814305E+02  5.394796609E-06  0.00000E+00  9.000E+00
      21     1     1     2   501   512 -6.019160260E+00 -2.381304979E+01  9.096864238E+00  2.619245253E+01  1.445335824E-06  0.00000E+00  9.000E+00
      21     1     3     3   513   502  4.489213856E+00 -5.698212766E-01  1.484899357E+01  1.552321962E+01  1.685873940E-07  0.00000E+00  9.000E+00
#rwgt            1          17   6.2497347777525372                1     5758542           0      100111           0
<weights>
0.13720E+02
</weights>
</event>
<event>
     15  10001  1.35503E+01  9.07918E+00 -1.00000E+00  3.34609E-01
       2    -1     0     0   512     0  0.000000000E+00  0.000000000E+00  2.845529992E+03  2.845529992E+03  0.000000000E+00  0.00000E+00  9.000E+00
      -2    -1     0     0     0   502  0.000000000E+00  0.000000000E+00 -1.206695592E+01  1.206695592E+01  0.000000000E+00  0.00000E+00  9.000E+00
      -6     2     1     2     0   502  2.954667445E+01  1.632820495E+01  1.110272123E+03  1.124208018E+03  1.732046874E+02  0.00000E+00  9.000E+00
       6     2     1     2   507     0 -3.446409314E+01 -2.396040206E+01  1.654715478E+03  1.664314212E+03  1.734837447E+02  0.00000E+00  9.000E+00
     -24     2     3     3     0     0 -2.157477510E+01  6.326826207E+01  5.722855418E+02  5.816621469E+02  7.969797885E+01  0.00000E+00  9.000E+00
      24     2     4     4     0     0 -1.085253650E+01 -3.866156397E+01  4.520434343E+02  4.613037974E+02  8.273713169E+01  0.00000E+00  9.000E+00
     -11     1     6     6     0     0 -1.272692881E+01 -2.027769742E+01  4.365020768E+02  4.371581210E+02  0.000000000E+00  0.00000E+00  9.000E+00
      12     1     6     6     0     0  1.874392305E+00 -1.838386654E+01  1.554135745E+01  2.414567636E+01  1.250277577E-06  0.00000E+00  9.000E+00
      13     1     5     5     0     0  1.127569404E+01  1.042610377E+01  1.703186503E+01  2.293314942E+01  0.000000000E+00  0.00000E+00  9.000E+00
     -14     1     5     5     0     0 -3.285046914E+01  5.284215830E+01  5.552536768E+02  5.587289975E+02  1.525878906E-05  0.00000E+00  9.000E+00
       5     1     4     4   514     0 -2.314741526E+01  1.403434375E+01  1.131454425E+03  1.131788162E+03  4.750000000E+00  0.00000E+00  9.000E+00
      -5     1     3     3     0   511  4.683931785E+01 -4.592744522E+01  5.011858167E+02  5.054829743E+02  4.750000000E+00  0.00000E+00  9.000E+00
      21     1     1     2   512   507  4.917418689E+00  7.632197108E+00  6.847543475E+01  6.907471754E+01  1.651812370E-06  0.00000E+00  9.000E+00
      21     1     3     3   511   502  4.282131696E+00 -1.012611903E+00  3.680076450E+01  3.706289657E+01  6.743495762E-07  0.00000E+00  9.000E+00
      21     1     4     4   507   514 -4.641413715E-01  6.668181581E-01  7.121761872E+01  7.122225277E+01  0.000000000E+00  0.00000E+00  9.000E+00
#rwgt            1           8   31.949190683814397                1     5765311           0       11110           0
<weights>
0.12825E+02
</weights>
</event>
<event>
     13  10001  1.35503E+01  8.93048E+01 -1.00000E+00  1.26078E-01
      21    -1     0     0   511   501  0.000000000E+00  0.000000000E+00  2.061980555E+03  2.061980555E+03  0.000000000E+00  0.00000E+00  9.000E+00
      21    -1     0     0   507   502  0.000000000E+00  0.000000000E+00 -2.725844798E+02  2.725844798E+02  0.000000000E+00  0.00000E+00  9.000E+00
      -6     2     1     2     0   501 -2.038668515E+02  6.545198508E+01  1.596650143E+03  1.620059256E+03  1.716235985E+02  0.00000E+00  9.000E+00
       6     2     1     2   507     0  2.774159999E+02 -1.161064385E+02 -1.363364923E+02  3.735210383E+02  1.746138162E+02  0.00000E+00  9.000E+00
     -24     2     3     3     0     0 -1.621945827E+02  1.421564737E+01  7.822941290E+02  8.030157935E+02  7.963098009E+01  0.00000E+00  9.000E+00
      24     2     4     4     0     0  5.945142720E+01 -6.510409999E+01 -1.988186446E+01  1.211442637E+02  8.066987081E+01  0.00000E+00  9.000E+00
     -11     1     6     6     0     0  4.434649976E+01 -3.539655353E+01  2.762886423E+01  6.311007987E+01  0.000000000E+00  0.00000E+00  9.000E+00
      12     1     6     6     0     0  1.510492744E+01 -2.970754646E+01 -4.751072869E+01  5.803418381E+01  3.090257978E-06  0.00000E+00  9.000E+00
      13     1     5     5     0     0 -9.061752257E+01 -1.183083579E+01  5.740516000E+02  5.812802625E+02  0.000000000E+00  0.00000E+00  9.000E+00
     -14     1     5     5     0     0 -7.157706008E+01  2.604648316E+01  2.082425290E+02  2.217355310E+02  4.672030912E-06  0.00000E+00  9.000E+00
       5     1     4     4   507     0  2.179645727E+02 -5.100233853E+01 -1.164546279E+02  2.523767746E+02  4.750000000E+00  0.00000E+00  9.000E+00
      -5     1     3     3     0   501 -4.167226880E+01  5.123633771E+01  8.143560137E+02  8.170434626E+02  4.750000000E+00  0.00000E+00  9.000E+00
      21     1     1     2   511   502 -7.354914849E+01  5.065445344E+01  3.290824245E+02  3.409847402E+02  5.394796609E-06  0.00000E+00  9.000E+00
#rwgt            2         113   25.084123241328964                1     5774075           0           1           0
<weights>
0.13550E+02
</weights>
</event>
<event>
     14  10001  1.35503E+01  1.53346E+01 -1.00000E+00  7.48613E-01
       2    -1     0     0   502     0  0.000000000E+00  0.000000000E+00  2.570537105E+03  2.570537105E+03  0.000000000E+00  0.00000E+00  9.000E+00
      21    -1     0     0   507   502  0.000000000E+00  0.000000000E+00 -8.184848554E+01  8.184848554E+01  0.000000000E+00  0.00000E+00  9.000E+00
      -6     2     1     2     0   501 -6.129242671E+01 -1.526879181E+02  6.908594119E+02  7.311986824E+02  1.740529353E+02  0.00000E+00  9.000E+00
       6     2     1     2   507     0  7.006531384E+01  1.401106864E+02  1.585141934E+02  2.818001734E+02  1.724657518E+02  0.00000E+00  9.000E+00
     -24     2     3     3     0     0 -2.813624424E+00 -1.189295570E+01  2.223605665E+02  2.384951992E+02  8.536029308E+01  0.00000E+00  9.000E+00
      24     2     4     4     0     0  7.346725194E+01  1.415040500E+02  1.831055407E+02  2.561307411E+02  8.157502194E+01  0.00000E+00  9.000E+00
     -11     1     6     6     0     0  2.104781719E+01  1.720539653E+01 -1.801966070E+00  2.724487768E+01  0.000000000E+00  0.00000E+00  9.000E+00
      12     1     6     6     0     0  5.241943475E+01  1.242986535E+02  1.849075068E+02  2.288858634E+02  0.000000000E+00  0.00000E+00  9.000E+00
      13     1     5     5     0     0 -2.653203586E+01  1.329534384E+01  2.708540121E+01  4.017877616E+01  0.000000000E+00  0.00000E+00  9.000E+00
     -14     1     5     5     0     0  2.371841144E+01 -2.518829954E+01  1.952751652E+02  1.983164230E+02  3.814697266E-06  0.00000E+00  9.000E+00
       5     1     4     4   512     0 -2.582316217E+00 -5.030778590E-01 -2.319313484E+01  2.382027389E+01  4.750000000E+00  0.00000E+00  9.000E+00
      -5     1     3     3     0   501 -5.847880229E+01 -1.407949624E+02  4.684988454E+02  4.927034833E+02  4.750000000E+00  0.00000E+00  9.000E+00
       2     1     1     2   501     0 -8.772887123E+00  1.257723168E+01  1.639315014E+03  1.639386735E+03  0.000000000E+00  0.00000E+00  9.000E+00
      21     1     4     4   507   512 -8.196218875E-01 -8.902857495E-01 -1.398212466E+00  1.849158418E+00  1.685873940E-07  0.00000E+00  9.000E+00
#rwgt            1          17   32.044274364372050                1     5774514           0         110           0
<weights>
0.11538E+02
</weights>
</event>
<event>
     14  10001  1.35503E+01  1.36687E+02 -1.00000E+00  1.37959E-01
      21    -1     0     0   511   501  0.000000000E+00  0.000000000E+00  1.351433576E+03  1.351433576E+03  0.000000000E+00  0.00000E+00  9.000E+00
      21    -1     0     0   507   502  0.000000000E+00  0.000000000E+00 -7.817802632E+01  7.817802632E+01  0.000000000E+00  0.00000E+00  9.000E+00
      -6     2     1     2     0   501  2.219219792E+01  5.203325849E+01  7.953414107E+02  8.158006678E+02  1.725190319E+02  0.00000E+00  9.000E+00
       6     2     1     2   507     0 -1.261238158E+02  3.674457235E+01  1.788357485E+02  2.849778947E+02  1.788093818E+02  0.00000E+00  9.000E+00
     -24     2     3     3     0     0  1.378896263E+00 -2.452199304E+01  3.915416199E+02  4.012870811E+02  8.439935923E+01  0.00000E+00  9.000E+00
      24     2     4     4     0     0 -7.697937791E+01  7.985505488E+01  5.867788815E+01  1.481050947E+02  7.867254991E+01  0.00000E+00  9.000E+00
     -11     1     6     6     0     0 -6.828412786E+01  1.855819176E+01  4.741583432E+01  8.517857679E+01  0.000000000E+00  0.00000E+00  9.000E+00
      12     1     6     6     0     0 -8.695250046E+00  6.129686312E+01  1.126205382E+01  6.292651792E+01  2.625312274E-06  0.00000E+00  9.000E+00
      13     1     5     5     0     0 -6.999889514E+00 -2.728223741E+01  3.914529080E+02  3.924649005E+02  0.000000000E+00  0.00000E+00  9.000E+00
     -14     1     5     5     0     0  8.378785778E+00  2.760244371E+00  8.871185816E-02  8.822180563E+00  7.212538674E-07  0.00000E+00  9.000E+00
       5     1     4     4   507     0 -4.914443788E+01 -4.311048253E+01  1.201578604E+02  1.368728000E+02  4.750000000E+00  0.00000E+00  9.000E+00
      -5     1     3     3     0   513 -3.093725980E+00  3.759336804E+01  2.795199888E+02  2.820936354E+02  4.750000000E+00  0.00000E+00  9.000E+00
      21     1     1     2   511   502  1.039316179E+02 -8.877783084E+01  2.990783909E+02  3.288330402E+02  3.814697266E-06  0.00000E+00  9.000E+00
      21     1     3     3   513   501  2.390702763E+01  3.896188349E+01  1.242798020E+02  1.324199513E+02  1.907348633E-06  0.00000E+00  9.000E+00
#rwgt            1          17   26.416475545869901                1     5786606           0         111           0
<weights>
0.14756E+02
</weights>
</event>
<event>
     14  10001  1.35503E+01  2.13744E+01 -1.00000E+00  7.48398E-01
      21    -1     0     0   511   501  0.000000000E+00  0.000000000E+00  5.724439832E+02  5.724439832E+02  0.000000000E+00  0.00000E+00  9.000E+00
      21    -1     0     0   507   502  0.000000000E+00  0.000000000E+00 -2.182988625E+02  2.182988625E+02  0.000000000E+00  0.00000E+00  9.000E+00
      -6     2     1     2     0   501 -1.179628802E+02 -8.081069637E+01  3.087561070E+02  3.814615128E+02  1.724440267E+02  0.00000E+00  9.000E+00
       6     2     1     2   507     0  1.392897494E+02  7.938591161E+01 -1.054586437E+02  2.569268741E+02  1.708395031E+02  0.00000E+00  9.000E+00
     -24     2     3     3     0     0 -1.524901368E+02 -7.987010142E+01  2.526653318E+02  3.154179383E+02  7.756436678E+01  0.00000E+00  9.000E+00
      24     2     4     4     0     0  3.919656192E+01  5.591233764E+01 -8.143598186E+01  1.318977252E+02  7.811933698E+01  0.00000E+00  9.000E+00
     -11     1     6     6     0     0  5.607799304E+01  2.209976773E+01 -7.008068123E+01  9.243615590E+01  0.000000000E+00  0.00000E+00  9.000E+00
      12     1     6     6     0     0 -1.688143112E+01  3.381256991E+01 -1.135530064E+01  3.946156932E+01  1.105501472E-06  0.00000E+00  9.000E+00
      13     1     5     5     0     0 -9.689257722E+01 -8.022333070E+01  2.120861149E+02  2.465856330E+02  0.000000000E+00  0.00000E+00  9.000E+00
     -14     1     5     5     0     0 -5.559755954E+01  3.532292770E-01  4.057921691E+01  6.883230522E+01  8.259061849E-07  0.00000E+00  9.000E+00
       5     1     4     4   512     0  8.676565495E+01  4.226790656E+01 -7.990866174E+00  9.696015288E+01  4.750000000E+00  0.00000E+00  9.000E+00
      -5     1     3     3     0   501  3.452725657E+01 -9.405949491E-01  5.609077528E+01  6.604357454E+01  4.750000000E+00  0.00000E+00  9.000E+00
      21     1     4     4   507   512  1.332753254E+01 -1.879433260E+01 -1.603179570E+01  2.806899597E+01  7.152557373E-07  0.00000E+00  9.000E+00
      21     1     1     2   511   502 -2.132686923E+01  1.424784762E+00  1.508476574E+02  1.523544587E+02  1.907348633E-06  0.00000E+00  9.000E+00
#rwgt            1          17   66.798309463731428                1     5797155           0        1001           0
<weights>
0.13333E+02
</weights>
</event>
<event>
     15  10001  1.35503E+01  2.65635E+01 -1.00000E+00  2.43811E-01
      21    -1     0     0   507   501  0.000000000E+00  0.000000000E+00  3.063716952E+02  3.063716952E+02  0.000000000E+00  0.00000E+00  9.000E+00
      21    -1     0     0   512   502  0.000000000E+00  0.000000000E+00 -2.884632054E+02  2.884632054E+02  0.000000000E+00  0.00000E+00  9.000E+00
      -6     2     1     2     0   502 -6.563968471E+00  4.436110696E+01 -2.188830079E+02  2.810764306E+02  1.705379582E+02  0.00000E+00  9.000E+00
       6     2     1     2   507     0  3.034694926E+01 -3.252939267E+01  1.946407136E+02  2.639357018E+02  1.726208231E+02  0.00000E+00  9.000E+00
     -24     2     3     3     0     0  2.072739866E+01 -2.328804390E+01 -1.678146707E+02  1.886200183E+02  8.027321817E+01  0.00000E+00  9.000E+00
      24     2     4     4     0     0  2.272751334E+01  3.363291179E+01  1.546367684E+02  1.771710136E+02  7.635001840E+01  0.00000E+00  9.000E+00
     -11     1     6     6     0     0  2.011798579E+01 -1.664961500E+01  1.844852568E+01  3.197328779E+01  0.000000000E+00  0.00000E+00  9.000E+00
      12     1     6     6     0     0  2.609527548E+00  5.028252679E+01  1.361882427E+02  1.451977258E+02  4.672030912E-06  0.00000E+00  9.000E+00
      13     1     5     5     0     0 -2.756227647E+01  5.536083945E+00 -7.501323689E+01  8.010813328E+01  0.000000000E+00  0.00000E+00  9.000E+00
     -14     1     5     5     0     0  4.828967514E+01 -2.882412785E+01 -9.280143383E+01  1.085118850E+02  3.568322551E-06  0.00000E+00  9.000E+00
       5     1     4     4   511     0  6.043449132E+00 -1.036267304E+01 -6.187833952E+00  1.430943950E+01  4.750000000E+00  0.00000E+00  9.000E+00
      -5     1     3     3     0   513 -2.956312695E+01  6.823789662E+01 -4.818944319E+01  8.874217681E+01  4.750000000E+00  0.00000E+00  9.000E+00
      21     1     4     4   507   511  1.575986790E+00 -5.579963142E+01  4.619177917E+01  7.245524870E+01  1.651812370E-06  0.00000E+00  9.000E+00
      21     1     1     2   512   501 -2.378298079E+01 -1.183171429E+01  4.215078410E+01  4.982276827E+01  0.000000000E+00  0.00000E+00  9.000E+00
      21     1     3     3   513   502  2.271759820E+00 -5.887457560E-01 -2.878894019E+00  3.714235456E+00  9.424321831E-08  0.00000E+00  9.000E+00
#rwgt            1          17   24.841701301298613                1     5803655           0      100111           0
<weights>
0.15407E+02
</weights>
</event>
<event>
     15  10001 -1.35503E+01  2.51239E+01 -1.00000E+00  5.13596E-01
      21    -1     0     0   507   512  0.000000000E+00  0.000000000E+00  1.231127755E+02  1.231127755E+02  0.000000000E+00  0.00000E+00  9.000E+00
      21    -1     0     0   501   502  0.000000000E+00  0.000000000E+00 -4.947543500E+02  4.947543500E+02  0.000000000E+00  0.00000E+00  9.000E+00
      -6     2     1     2     0   502 -3.414918214E+01  3.039978194E+01 -2.539987332E+02  3.107932498E+02  1.731668971E+02  0.00000E+00  9.000E+00
       6     2     1     2   507     0  5.909026294E+01 -3.342513800E+01 -1.681028972E+02  2.507052006E+02  1.731635485E+02  0.00000E+00  9.000E+00
     -24     2     3     3     0     0  1.485672123E+01  3.512864563E+01 -5.327301492E+01  1.039637483E+02  8.071990421E+01  0.00000E+00  9.000E+00
      24     2     4     4     0     0 -1.407376510E+01 -4.348147159E+01 -1.461706801E+02  1.731592103E+02  8.080553912E+01  0.00000E+00  9.000E+00
     -11     1     6     6     0     0 -8.404548070E+00  2.281980964E+01 -2.473766152E+01  3.468907663E+01  0.000000000E+00  0.00000E+00  9.000E+00
      12     1     6     6     0     0 -5.669217026E+00 -6.630128123E+01 -1.214330186E+02  1.384701337E+02  2.697398305E-06  0.00000E+00  9.000E+00
      13     1     5     5     0     0 -2.907453183E+01  1.407454692E+01 -7.278294204E-01  3.231023070E+01  0.000000000E+00  0.00000E+00  9.000E+00
     -14     1     5     5     0     0  4.393125306E+01  2.105409871E+01 -5.254518550E+01  7.165351762E+01  1.784161275E-06  0.00000E+00  9.000E+00
       5     1     4     4   511     0  6.907897226E+01  1.061712067E+01 -2.199155785E+01  7.342219539E+01  4.750000000E+00  0.00000E+00  9.000E+00
      -5     1     3     3     0   514 -4.769603374E+01 -5.592275856E+00 -1.925846269E+02  1.985386265E+02  4.750000000E+00  0.00000E+00  9.000E+00
      21     1     1     2   501   512 -2.494108079E+01  3.025356060E+00  5.046005591E+01  5.636867510E+01  1.507891493E-06  0.00000E+00  9.000E+00
      21     1     4     4   507   511  4.085055778E+00 -5.607870819E-01  5.934077152E-02  4.123794877E+00  5.507416815E-08  0.00000E+00  9.000E+00
      21     1     3     3   514   502 -1.309869635E+00  8.634121680E-01 -8.141091407E+00  8.290875004E+00  0.000000000E+00  0.00000E+00  9.000E+00
#rwgt            1          17  -11.137801689076632                1     5810299           0       11011           0
<weights>
-.17850E+02
</weights>
</event>
<event>
     13  10001  1.35503E+01  1.16357E+02 -1.00000E+00  1.20939E-01
      21    -1     0     0   502   511  0.000000000E+00  0.000000000E+00  3.653463305E+02  3.653463305E+02  0.000000000E+00  0.00000E+00  9.000E+00
      21    -1     0     0   507   502  0.000000000E+00  0.000000000E+00 -6.562281235E+02  6.562281235E+02  0.000000000E+00  0.00000E+00  9.000E+00
      -6     2     1     2     0   501  5.112472814E+01 -1.209361197E+02 -3.990670780E+02  4.542558273E+02  1.727846668E+02  0.00000E+00  9.000E+00
       6     2     1     2   507     0 -8.457286621E+01  9.490514117E+00 -1.759693547E+02  2.602636477E+02  1.718409525E+02  0.00000E+00  9.000E+00
     -24     2     3     3     0     0  3.308679397E+01  4.207971416E+00 -1.849391674E+02  2.055396534E+02  8.325629417E+01  0.00000E+00  9.000E+00
      24     2     4     4     0     0 -6.229234992E+01  2.931222137E+01 -1.973863760E+02  2.232423999E+02  7.833418487E+01  0.00000E+00  9.000E+00
     -11     1     6     6     0     0 -1.196062099E+01  2.813912326E+00  4.811884178E+00  1.319578669E+01  0.000000000E+00  0.00000E+00  9.000E+00
      12     1     6     6     0     0 -5.033172893E+01  2.649830905E+01 -2.021982601E+02  2.100466132E+02  0.000000000E+00  0.00000E+00  9.000E+00
      13     1     5     5     0     0  3.808923378E+01 -2.131541265E+01 -4.312014290E+01  6.135538502E+01  0.000000000E+00  0.00000E+00  9.000E+00
     -14     1     5     5     0     0 -5.002439815E+00  2.552338406E+01 -1.418190245E+02  1.441842683E+02  2.697398305E-06  0.00000E+00  9.000E+00
       5     1     4     4   507     0 -2.228051629E+01 -1.982170725E+01  2.141702131E+01  3.702124777E+01  4.750000000E+00  0.00000E+00  9.000E+00
      -5     1     3     3     0   501  1.803793417E+01 -1.251440911E+02 -2.141279106E+02  2.487161740E+02  4.750000000E+00  0.00000E+00  9.000E+00
      21     1     1     2   501   511  3.344813806E+01  1.114456056E+02  2.841546395E+02  3.070549790E+02  3.814697266E-06  0.00000E+00  9.000E+00
#rwgt            2         113   7.9223407761565596                1     5825749           0           1           0
<weights>
0.13550E+02
</weights>
</event>
<event>
     14  10001  1.35503E+01  1.00029E+01 -1.00000E+00  2.50687E-01
      21    -1     0     0   502   512  0.000000000E+00  0.000000000E+00  2.488692123E+01  2.488692123E+01  0.000000000E+00  0.00000E+00  9.000E+00
      21    -1     0     0   507   502  0.000000000E+00  0.000000000E+00 -1.534747168E+03  1.534747168E+03  0.000000000E+00  0.00000E+00  9.000E+00
      -6     2     1     2     0   501  3.612810280E+01  3.377600564E+01 -8.149799691E+02  8.343761313E+02  1.718869397E+02  0.00000E+00  9.000E+00
       6     2     1     2   507     0 -3.063304710E+01 -4.213439548E+01 -6.922310856E+02  7.149101787E+02  1.708771395E+02  0.00000E+00  9.000E+00
     -24     2     3     3     0     0 -1.002600515E+01  2.710723516E+01 -7.443678438E+02  7.491638408E+02  7.954653100E+01  0.00000E+00  9.000E+00
      24     2     4     4     0     0  3.449688789E+01 -1.800663422E+01 -5.422185950E+02  5.495307146E+02  8.042839899E+01  0.00000E+00  9.000E+00
     -11     1     6     6     0     0 -2.741143759E+00 -4.024937367E+01 -3.584229470E+02  3.606862001E+02  0.000000000E+00  0.00000E+00  9.000E+00
      12     1     6     6     0     0  3.723803164E+01  2.224273945E+01 -1.837956480E+02  1.888445146E+02  3.814697266E-06  0.00000E+00  9.000E+00
      13     1     5     5     0     0  2.409329856E+01 -1.159419071E+00 -5.144815427E+02  5.150466863E+02  0.000000000E+00  0.00000E+00  9.000E+00
     -14     1     5     5     0     0 -3.411930371E+01  2.826665423E+01 -2.298863011E+02  2.341171545E+02  6.607249480E-06  0.00000E+00  9.000E+00
       5     1     4     4   507     0 -6.512993498E+01 -2.412776126E+01 -1.500124906E+02  1.653794641E+02  4.750000000E+00  0.00000E+00  9.000E+00
      -5     1     3     3     0   513  3.863916297E+01  2.890310713E+00 -6.119070786E+01  7.258239483E+01  4.750000000E+00  0.00000E+00  9.000E+00
      21     1     1     2   501   512 -5.495055701E+00  8.358389839E+00 -2.649192062E+00  1.034777930E+01  7.873681077E-07  0.00000E+00  9.000E+00
      21     1     3     3   513   501  7.514944979E+00  3.778459769E+00 -9.421417505E+00  1.262989565E+01  1.685873940E-07  0.00000E+00  9.000E+00
#rwgt            1          17   35.683552513224996                1     5835212           0         111           0
<weights>
0.16749E+02
</weights>
</event>
<event>
     14  10001  1.35503E+01  7.91164E+00 -1.00000E+00  6.42281E-01
      21    -1     0     0   507   501  0.000000000E+00  0.000000000E+00  1.049959757E+02  1.049959757E+02  0.000000000E+00  0.00000E+00  9.000E+00
      21    -1     0     0   511   502  0.000000000E+00  0.000000000E+00 -1.156733179E+03  1.156733179E+03  0.000000000E+00  0.00000E+00  9.000E+00
      -6     2     1     2     0   502 -5.264617788E+01  7.670246050E+01 -1.039172537E+03  1.057508144E+03  1.725949718E+02  0.00000E+00  9.000E+00
       6     2     1     2   507     0  5.279003862E+01 -6.879213156E+01 -1.837847818E+01  1.944029450E+02  1.730190481E+02  0.00000E+00  9.000E+00
     -24     2     3     3     0     0 -7.748111816E+01 -1.862929926E+00 -5.256131790E+02  5.372642716E+02  7.985542841E+01  0.00000E+00  9.000E+00
      24     2     4     4     0     0  7.211429025E+01 -1.044563649E+02 -2.419226923E+01  1.531509522E+02  8.220915556E+01  0.00000E+00  9.000E+00
     -11     1     6     6     0     0 -5.125955456E+00  5.270132652E+00 -1.728900186E+01  1.878721115E+01  0.000000000E+00  0.00000E+00  9.000E+00
      12     1     6     6     0     0  7.724024571E+01 -1.097264975E+02 -6.903267368E+00  1.343637411E+02  6.503738084E-06  0.00000E+00  9.000E+00
      13     1     5     5     0     0 -6.091657237E+01  2.554529300E+01 -2.128133010E+02  2.228292886E+02  0.000000000E+00  0.00000E+00  9.000E+00
     -14     1     5     5     0     0 -1.656454579E+01 -2.740822293E+01 -3.127998780E+02  3.144349830E+02  0.000000000E+00  0.00000E+00  9.000E+00
       5     1     4     4   507     0 -1.932425163E+01  3.566423332E+01  5.813791047E+00  4.125199275E+01  4.750000000E+00  0.00000E+00  9.000E+00
      -5     1     3     3     0   512  2.458177331E+01  7.864674558E+01 -5.132120696E+02  5.198064689E+02  4.750000000E+00  0.00000E+00  9.000E+00
      21     1     1     2   511   501 -1.438607420E-01 -7.910328940E+00  5.813812465E+00  9.818065758E+00  5.331201500E-07  0.00000E+00  9.000E+00
      21     1     3     3   512   502  2.531669769E-01 -8.135516077E-02 -3.472887857E-01  4.374033391E-01  1.707142478E-08  0.00000E+00  9.000E+00
#rwgt            1          17   26.683919802371872                1     5845938           0         111           0
<weights>
0.13694E+02
</weights>
</event>
<event>
     14  10001 -1.35503E+01  4.25681E+01 -1.00000E+00  3.10905E-01
      21    -1     0     0   507   512  0.000000000E+00  0.000000000E+00  6.501931790E+02  6.501931790E+02  0.000000000E+00  0.00000E+00  9.000E+00
      21    -1     0     0   501   502  0.000000000E+00  0.000000000E+00 -8.720934827E+01  8.720934827E+01  0.000000000E+00  0.00000E+00  9.000E+00
      -6     2     1     2     0   502 -1.002779565E+02  3.734939705E+01  3.635528129E+02  4.161262322E+02  1.718713102E+02  0.00000E+00  9.000E+00
       6     2     1     2   507     0  9.510890880E+01  4.903741252E+00  1.962719090E+02  2.785910902E+02  1.732644858E+02  0.00000E+00  9.000E+00
     -24     2     3     3     0     0 -1.243618924E+02 -7.727412137E+00  2.645718204E+02  3.036395183E+02  8.168914095E+01  0.00000E+00  9.000E+00
      24     2     4     4     0     0  1.018659069E+02 -5.987375952E-01  6.101084126E+01  1.429664123E+02  7.962443604E+01  0.00000E+00  9.000E+00
     -11     1     6     6     0     0  1.093514859E+02 -1.648464257E+01  5.885519355E+01  1.252733999E+02  0.000000000E+00  0.00000E+00  9.000E+00
      12     1     6     6     0     0 -7.485579021E+00  1.588590498E+01  2.155647708E+00  1.769301239E+01  9.200184965E-07  0.00000E+00  9.000E+00
      13     1     5     5     0     0  9.592257819E+00  9.989748024E+00  2.614975083E+01  2.959080844E+01  0.000000000E+00  0.00000E+00  9.000E+00
     -14     1     5     5     0     0 -1.339541502E+02 -1.771716016E+01  2.384220696E+02  2.740487099E+02  4.672030912E-06  0.00000E+00  9.000E+00
       5     1     4     4   507     0 -6.756998103E+00  5.502478847E+00  1.352610678E+02  1.356246779E+02  4.750000000E+00  0.00000E+00  9.000E+00
      -5     1     3     3     0   511  2.443672889E+01  4.485066844E+01  9.942403600E+01  1.118768860E+02  4.750000000E+00  0.00000E+00  9.000E+00
      21     1     1     2   501   512  5.169047704E+00 -4.225313830E+01  3.159108753E+00  4.268520491E+01  1.566820076E-06  0.00000E+00  9.000E+00
      21     1     3     3   511   502 -3.527930489E-01  2.261407489E-01 -4.430434661E-01  6.098279155E-01  4.770699320E-08  0.00000E+00  9.000E+00
#rwgt            1          17  -9.2631877620400775                1     5856708           0         111           0
<weights>
-.21042E+02
</weights>
</event>
<event>
     15  10001  1.35503E+01  3.19132E+01 -1.00000E+00  2.97603E-01
      21    -1     0     0   511   501  0.000000000E+00  0.000000000E+00  1.726767305E+03  1.726767305E+03  0.000000000E+00  0.00000E+00  9.000E+00
      21    -1     0     0   507   502  0.000000000E+00  0.000000000E+00 -9.540658932E+01  9.540658932E+01  0.000000000E+00  0.00000E+00  9.000E+00
      -6     2     1     2     0   501 -1.830853937E+01  4.682039166E+01  5.478617009E+02  5.768414822E+02  1.733963684E+02  0.00000E+00  9.000E+00
       6     2     1     2   507     0  2.172811297E+01 -1.509097025E+01  1.847369440E+01  1.798290650E+02  1.769106186E+02  0.00000E+00  9.000E+00
     -24     2     3     3     0     0  6.128099075E+00  1.480367290E+01  1.129752433E+02  1.400255276E+02  8.116058439E+01  0.00000E+00  9.000E+00
      24     2     4     4     0     0  1.909176037E+01  7.013120934E-01  8.038847508E+01  1.155660069E+02  8.079732584E+01  0.00000E+00  9.000E+00
     -11     1     6     6     0     0  2.522329708E+01  3.766887770E+01  4.816335241E+01  6.614278175E+01  0.000000000E+00  0.00000E+00  9.000E+00
      12     1     6     6     0     0 -6.131536709E+00 -3.696756560E+01  3.222512267E+01  4.942322511E+01  8.259061849E-07  0.00000E+00  9.000E+00
      13     1     5     5     0     0  3.580070925E+01  3.022230336E+01  4.873492759E+01  6.760304409E+01  0.000000000E+00  0.00000E+00  9.000E+00
     -14     1     5     5     0     0 -2.967261017E+01 -1.541863046E+01  6.424031566E+01  7.242248350E+01  0.000000000E+00  0.00000E+00  9.000E+00
       5     1     4     4   513     0  1.523018532E+00 -1.504307666E+01 -5.790387071E+01  6.003361129E+01  4.750000000E+00  0.00000E+00  9.000E+00
      -5     1     3     3     0   512 -2.087916839E+01  2.774290650E+01  3.509264213E+02  3.526719782E+02  4.750000000E+00  0.00000E+00  9.000E+00
      21     1     1     2   511   502 -3.419573593E+00 -3.172942140E+01  1.065025320E+03  1.065503347E+03  0.000000000E+00  0.00000E+00  9.000E+00
      21     1     3     3   512   501 -3.557470055E+00  4.273812258E+00  8.396003640E+01  8.414397647E+01  2.132480600E-06  0.00000E+00  9.000E+00
      21     1     4     4   507   513  1.113334063E+00 -7.492056865E-01 -4.010909974E+00  4.229446857E+00  2.858538343E-07  0.00000E+00  9.000E+00
#rwgt            1          17   30.410203686662477                1     5868075           0       11110           0
<weights>
0.12065E+02
</weights>
</event>
<event>
     13  10001  1.35503E+01  7.00457E+00 -1.00000E+00  2.15514E-01
      21    -1     0     0   502   501  0.000000000E+00  0.000000000E+00  1.813012068E+02  1.813012068E+02  0.000000000E+00  0.00000E+00  9.000E+00
      21    -1     0     0   512   502  0.000000000E+00  0.000000000E+00 -4.282097666E+02  4.282097666E+02  0.000000000E+00  0.00000E+00  9.000E+00
      -6     2     1     2     0   501 -1.342528256E+02 -2.036596868E+01  5.963741781E+01  2.275662540E+02  1.726012297E+02  0.00000E+00  9.000E+00
       6     2     1     2   507     0  1.276294384E+02  1.808675788E+01 -2.826422791E+02  3.570358683E+02  1.759873546E+02  0.00000E+00  9.000E+00
     -24     2     3     3     0     0 -1.619229160E+02 -2.958662799E+01  7.022548835E+01  1.961763799E+02  8.036885915E+01  0.00000E+00  9.000E+00
      24     2     4     4     0     0  1.179717881E+02  1.032464862E+01 -1.029990034E+02  1.769031685E+02  8.162104604E+01  0.00000E+00  9.000E+00
     -11     1     6     6     0     0  5.614430498E+01  1.252743520E+01 -9.950687969E+01  1.149379777E+02  0.000000000E+00  0.00000E+00  9.000E+00
      12     1     6     6     0     0  6.182748316E+01 -2.202786584E+00 -3.492123739E+00  6.196519080E+01  1.875416365E-06  0.00000E+00  9.000E+00
      13     1     5     5     0     0 -9.247149939E+01 -4.026603267E-01  7.728005018E+01  1.205128478E+02  0.000000000E+00  0.00000E+00  9.000E+00
     -14     1     5     5     0     0 -6.945141663E+01 -2.918396766E+01 -7.054561835E+00  7.566353205E+01  2.453221754E-06  0.00000E+00  9.000E+00
       5     1     4     4   507     0  9.657650305E+00  7.762109265E+00 -1.796432757E+02  1.801326998E+02  4.750000000E+00  0.00000E+00  9.000E+00
      -5     1     3     3     0   501  2.767009039E+01  9.220659312E+00 -1.058807053E+01  3.138987413E+01  4.750000000E+00  0.00000E+00  9.000E+00
      21     1     1     2   512   507  6.623387192E+00  2.279210796E+00 -2.390369854E+01  2.490885111E+01  3.371747881E-07  0.00000E+00  9.000E+00
#rwgt            2         113   221.18095623458379                1     5879981           0           1           0
<weights>
0.13550E+02
</weights>
</event>
<event>
     14  10001  1.35503E+01  6.51523E+00 -1.00000E+00  7.51272E-01
      21    -1     0     0   507   501  0.000000000E+00  0.000000000E+00  3.798395182E+02  3.798395182E+02  0.000000000E+00  0.00000E+00  9.000E+00
      21    -1     0     0   501   511  0.000000000E+00  0.000000000E+00 -1.708317312E+02  1.708317312E+02  0.000000000E+00  0.00000E+00  9.000E+00
      -6     2     1     2     0   502  9.648797776E+01  7.019333683E+01 -4.422264633E+01  2.088857200E+02  1.656519459E+02  0.00000E+00  9.000E+00
       6     2     1     2   507     0 -1.026359578E+02 -7.234986767E+01  2.006999679E+02  2.888525710E+02  1.654892367E+02  0.00000E+00  9.000E+00
     -24     2     3     3     0     0  8.099228541E+01 -1.331881653E+01 -8.416024192E+00  1.165868959E+02  8.236828070E+01  0.00000E+00  9.000E+00
      24     2     4     4     0     0 -6.466840678E+01 -1.456910358E+01  3.183085041E+01  1.055500933E+02  7.571893782E+01  0.00000E+00  9.000E+00
     -11     1     6     6     0     0 -7.600584687E+01 -2.631387399E+01  3.685018537E+01  8.847171800E+01  0.000000000E+00  0.00000E+00  9.000E+00
      12     1     6     6     0     0  1.133744009E+01  1.174477041E+01 -5.019334963E+00  1.707837531E+01  6.583548198E-07  0.00000E+00  9.000E+00
      13     1     5     5     0     0  2.917993748E+01 -1.622727785E+01  3.540547304E+01  4.866560201E+01  0.000000000E+00  0.00000E+00  9.000E+00
     -14     1     5     5     0     0  5.181234794E+01  2.908461319E+00 -4.382149723E+01  6.792129390E+01  2.336015456E-06  0.00000E+00  9.000E+00
       5     1     4     4   513     0 -3.638352937E+01 -5.655613175E+01  1.681734397E+02  1.811828512E+02  4.750000000E+00  0.00000E+00  9.000E+00
      -5     1     3     3     0   502  1.549569235E+01  8.351215336E+01 -3.580662214E+01  9.229882409E+01  4.750000000E+00  0.00000E+00  9.000E+00
      21     1     1     2   502   511  6.147980075E+00  2.156530832E+00  5.253046538E+01  5.293295833E+01  9.536743164E-07  0.00000E+00  9.000E+00
      21     1     4     4   507   513 -1.584021679E+00 -1.224632328E+00  6.956778653E-01  2.119626550E+00  3.332000937E-08  0.00000E+00  9.000E+00
#rwgt            1          17   18.482016649044333                1     5880180           0         110           0
<weights>
0.10231E+02
</weights>
</event>
<event>
     15  10001  1.35503E+01  2.26057E+01 -1.00000E+00  3.70015E-01
      21    -1     0     0   512   501  0.000000000E+00  0.000000000E+00  4.965685295E+01  4.965685295E+01  0.000000000E+00  0.00000E+00  9.000E+00
      21    -1     0     0   501   502  0.000000000E+00  0.000000000E+00 -1.478831176E+03  1.478831176E+03  0.000000000E+00  0.00000E+00  9.000E+00
      -6     2     1     2     0   502  9.098793524E+01  8.020734204E+01 -3.769559515E+02  4.326566167E+02  1.743098866E+02  0.00000E+00  9.000E+00
       6     2     1     2   507     0 -1.053145396E+02 -9.769355986E+01 -5.556002268E+02  5.986990343E+02  1.706274827E+02  0.00000E+00  9.000E+00
     -24     2     3     3     0     0 -1.756270746E+01  5.059533889E+01 -1.877006867E+02  2.120370073E+02  8.282395574E+01  0.00000E+00  9.000E+00
      24     2     4     4     0     0 -1.214432376E+02 -2.594173223E+01 -3.884787912E+02  4.155894611E+02  7.985859675E+01  0.00000E+00  9.000E+00
     -11     1     6     6     0     0 -8.640270246E+01 -2.087592465E+00 -1.478729252E+02  1.712780986E+02  0.000000000E+00  0.00000E+00  9.000E+00
      12     1     6     6     0     0 -3.504053519E+01 -2.385413977E+01 -2.406058660E+02  2.443113625E+02  5.394796609E-06  0.00000E+00  9.000E+00
      13     1     5     5     0     0 -4.049777353E+00 -1.340260177E+01 -1.081313208E+02  1.090339992E+02  0.000000000E+00  0.00000E+00  9.000E+00
     -14     1     5     5     0     0 -1.351293011E+01  6.399794066E+01 -7.956936591E+01  1.030030081E+02  2.336015456E-06  0.00000E+00  9.000E+00
       5     1     4     4   511     0  1.826728949E+01 -6.680002219E+01 -1.561492440E+02  1.708832517E+02  4.750000000E+00  0.00000E+00  9.000E+00
      -5     1     3     3     0   514  1.075250860E+02  2.922841898E+01 -1.832903167E+02  2.145549983E+02  4.750000000E+00  0.00000E+00  9.000E+00
      21     1     1     2   512   507  1.432660433E+01  1.748621782E+01 -4.966181450E+02  4.971323781E+02  7.629394531E-06  0.00000E+00  9.000E+00
      21     1     4     4   507   511 -2.138591415E+00 -4.951805436E+00 -1.097219152E+01  1.222632149E+01  1.685873940E-07  0.00000E+00  9.000E+00
      21     1     3     3   514   502  1.025556736E+00  3.835841633E-01 -5.964948058E+00  6.064611180E+00  8.429369702E-08  0.00000E+00  9.000E+00
#rwgt            1          17   12.791606806797473                1     5888677           0       11011           0
<weights>
0.17392E+02
</weights>
</event>
<event>
     15  10001 -1.35503E+01  1.54808E+01 -1.00000E+00  1.93507E-01
      -2    -1     0     0     0   511  0.000000000E+00  0.000000000E+00  1.785205242E+01  1.785205242E+01  0.000000000E+00  0.00000E+00  9.000E+00
       2    -1     0     0   507     0  0.000000000E+00  0.000000000E+00 -1.922820302E+03  1.922820302E+03  0.000000000E+00  0.00000E+00  9.000E+00
      -6     2     1     2     0   501 -2.426776035E+01  4.657974847E+00 -7.245761049E+02  7.451362322E+02  1.720664168E+02  0.00000E+00  9.000E+00
       6     2     1     2   507     0  9.564371031E+00 -9.502236628E+00 -1.007827081E+03  1.022278056E+03  1.707490194E+02  0.00000E+00  9.000E+00
     -24     2     3     3     0     0 -6.624114013E+01 -6.229737662E+00 -2.866280572E+02  3.046672572E+02  7.899238041E+01  0.00000E+00  9.000E+00
      24     2     4     4     0     0  5.793743987E+01 -3.419118481E+01 -4.968406271E+02  5.080893016E+02  8.233070864E+01  0.00000E+00  9.000E+00
     -11     1     6     6     0     0  7.165749633E+00  2.339098680E+01 -6.445564079E+01  6.894211964E+01  0.000000000E+00  0.00000E+00  9.000E+00
      12     1     6     6     0     0  5.077169024E+01 -5.758217161E+01 -4.323849863E+02  4.391471820E+02  9.344061824E-06  0.00000E+00  9.000E+00
      13     1     5     5     0     0 -6.992940369E+01  1.571469247E+01 -2.613051876E+02  2.709565908E+02  0.000000000E+00  0.00000E+00  9.000E+00
     -14     1     5     5     0     0  3.688263557E+00 -2.194443013E+01 -2.532286965E+01  3.371066640E+01  7.539457465E-07  0.00000E+00  9.000E+00
       5     1     4     4   513     0 -4.437735083E+01  1.566539656E+01 -4.090382148E+02  4.117639829E+02  4.750000000E+00  0.00000E+00  9.000E+00
      -5     1     3     3     0   512  3.611002329E+01  1.070554915E+01 -2.994376028E+02  3.018343636E+02  4.750000000E+00  0.00000E+00  9.000E+00
      21     1     1     2   501   511  1.470338932E+01  4.844261780E+00 -1.725650636E+02  1.732580668E+02  4.264961200E-06  0.00000E+00  9.000E+00
      21     1     3     3   512   501  5.863356487E+00  1.821633557E-01 -1.385104449E+02  1.386346114E+02  1.907348633E-06  0.00000E+00  9.000E+00
      21     1     4     4   507   513 -3.995718016E+00  9.023551620E+00 -1.019482393E+02  1.024247712E+02  0.000000000E+00  0.00000E+00  9.000E+00
#rwgt            1           6  -16.373182713111639                1     5896162           0       11110           0
<weights>
-.13569E+02
</weights>
</event>
<event>
     15  10001  1.35503E+01  2.06131E+01 -1.00000E+00  4.60990E-01
      21    -1     0     0   512   501  0.000000000E+00  0.000000000E+00  1.198616674E+03  1.198616674E+03  0.000000000E+00  0.00000E+00  9.000E+00
      21    -1     0     0   507   502  0.000000000E+00  0.000000000E+00 -6.385460228E+01  6.385460228E+01  0.000000000E+00  0.00000E+00  9.000E+00
      -6     2     1     2     0   501 -4.591461511E+01 -1.776844823E+02  7.190354486E+02  7.641638066E+02  1.823579446E+02  0.00000E+00  9.000E+00
       6     2     1     2   507     0  6.585194928E+01  1.724497322E+02  3.960728970E+02  4.698264435E+02  1.725913030E+02  0.00000E+00  9.000E+00
     -24     2     3     3     0     0 -7.102756691E+01 -1.958401416E+02  5.860113710E+02  6.271627748E+02  8.078083218E+01  0.00000E+00  9.000E+00
      24     2     4     4     0     0 -5.345514361E+00  2.142389397E+01  1.602739356E+02  1.806332696E+02  8.033110175E+01  0.00000E+00  9.000E+00
     -11     1     6     6     0     0  9.319746887E+00  3.727234667E+01  1.531503221E+02  1.578958729E+02  0.000000000E+00  0.00000E+00  9.000E+00
      12     1     6     6     0     0 -1.466526125E+01 -1.584845270E+01  7.123613432E+00  2.273739670E+01  6.019774043E-07  0.00000E+00  9.000E+00
      13     1     5     5     0     0  4.030037234E+00 -9.408331281E+01  3.003835566E+02  3.147986531E+02  0.000000000E+00  0.00000E+00  9.000E+00
     -14     1     5     5     0     0 -7.505760414E+01 -1.017568288E+02  2.856278144E+02  3.123641217E+02  9.344061824E-06  0.00000E+00  9.000E+00
       5     1     4     4   511     0  6.266446386E+01  1.238058222E+02  1.984051260E+02  2.421608415E+02  4.750000000E+00  0.00000E+00  9.000E+00
      -5     1     3     3     0   514  2.426321163E+01  1.922303801E+01  1.251065350E+02  1.289668028E+02  4.750000000E+00  0.00000E+00  9.000E+00
      21     1     1     2   512   502 -1.993733417E+01  5.234750138E+00  1.965372641E+01  2.848102639E+01  7.152557373E-07  0.00000E+00  9.000E+00
      21     1     4     4   507   511  8.532999777E+00  2.722001605E+01  3.739383544E+01  4.703233236E+01  8.259061849E-07  0.00000E+00  9.000E+00
      21     1     3     3   514   501  8.497401627E-01 -1.067378785E+00  7.917542549E+00  8.034229013E+00  8.429369702E-08  0.00000E+00  9.000E+00
#rwgt            1          17   28.178367152356024                1     5897057           0       11011           0
<weights>
0.15409E+02
</weights>
</event>
<event>
     13  10001  1.35503E+01  9.72574E+01 -1.00000E+00  1.24374E-01
      21    -1     0     0   502   501  0.000000000E+00  0.000000000E+00  2.273515480E+03  2.273515480E+03  0.000000000E+00  0.00000E+00  9.000E+00
      21    -1     0     0   511   502  0.000000000E+00  0.000000000E+00 -1.034854766E+02  1.034854766E+02  0.000000000E+00  0.00000E+00  9.000E+00
      -6     2     1     2     0   501  1.188102901E+02  1.072754962E+02  1.954532712E+03  1.968616361E+03  1.721288365E+02  0.00000E+00  9.000E+00
       6     2     1     2   507     0 -1.777322402E+02 -2.989849931E+01  1.611900319E+02  2.969921619E+02  1.724512928E+02  0.00000E+00  9.000E+00
     -24     2     3     3     0     0  2.181682380E+01  8.366256811E+01  6.883486377E+02  6.984943290E+02  8.121010765E+01  0.00000E+00  9.000E+00
      24     2     4     4     0     0 -1.092686585E+02 -8.511941070E+01  1.023656389E+02  1.910701019E+02  8.272911229E+01  0.00000E+00  9.000E+00
     -11     1     6     6     0     0  2.648086353E+00 -1.900271247E+01 -7.768135211E+00  2.069926006E+01  0.000000000E+00  0.00000E+00  9.000E+00
      12     1     6     6     0     0 -1.119167449E+02 -6.611669823E+01  1.101337741E+02  1.703708419E+02  4.473129043E-06  0.00000E+00  9.000E+00
      13     1     5     5     0     0 -4.232002656E+00  9.040350451E+01  5.688111506E+02  5.759659960E+02  0.000000000E+00  0.00000E+00  9.000E+00
     -14     1     5     5     0     0  2.604882646E+01 -6.740936395E+00  1.195374871E+02  1.225283331E+02  0.000000000E+00  0.00000E+00  9.000E+00
       5     1     4     4   507     0 -6.846358172E+01  5.522091139E+01  5.882439301E+01  1.059220600E+02  4.750000000E+00  0.00000E+00  9.000E+00
      -5     1     3     3     0   501  9.699346626E+01  2.361292813E+01  1.266184074E+03  1.270122031E+03  4.750000000E+00  0.00000E+00  9.000E+00
      21     1     1     2   511   507  5.892195018E+01 -7.737699694E+01  5.430725930E+01  1.113924337E+02  6.743495762E-07  0.00000E+00  9.000E+00
#rwgt            2         113   3.5140319468041654                1     5962326           0           1           0
<weights>
0.13550E+02
</weights>
</event>
<event>
     15  10001 -1.35503E+01  3.08300E+01 -1.00000E+00  3.02649E-01
       1    -1     0     0   507     0  0.000000000E+00  0.000000000E+00  1.985154341E+03  1.985154341E+03  0.000000000E+00  0.00000E+00  9.000E+00
      21    -1     0     0   501   502  0.000000000E+00  0.000000000E+00 -1.254271741E+02  1.254271741E+02  0.000000000E+00  0.00000E+00  9.000E+00
      -6     2     1     2     0   502 -1.410791097E+02  1.808817938E+01  1.874622250E+01  2.242400222E+02  1.723417224E+02  0.00000E+00  9.000E+00
       6     2     1     2   507     0  1.343041720E+02  1.198820985E+01  5.117313448E+02  5.567344130E+02  1.729245776E+02  0.00000E+00  9.000E+00
     -24     2     3     3     0     0 -1.311105904E+02  9.062554864E+00 -4.186697155E+01  1.600865287E+02  8.125722464E+01  0.00000E+00  9.000E+00
      24     2     4     4     0     0  6.174044026E+01 -4.131481872E+01  3.935939785E+02  4.079882015E+02  7.758451201E+01  0.00000E+00  9.000E+00
     -11     1     6     6     0     0  7.215229288E+01 -4.356358747E+01  2.465385612E+02  2.605475037E+02  0.000000000E+00  0.00000E+00  9.000E+00
      12     1     6     6     0     0 -1.041185263E+01  2.248768745E+00  1.470554172E+02  1.474406978E+02  3.814697266E-06  0.00000E+00  9.000E+00
      13     1     5     5     0     0 -2.427534739E+01 -3.121217977E+01 -3.754715250E+00  3.971889404E+01  0.000000000E+00  0.00000E+00  9.000E+00
     -14     1     5     5     0     0 -1.068352430E+02  4.027473464E+01 -3.811225630E+01  1.203676347E+02  1.257982822E-05  0.00000E+00  9.000E+00
       5     1     4     4   511     0  6.737732866E+01  4.860219540E+01  1.112314082E+02  1.389131617E+02  4.750000000E+00  0.00000E+00  9.000E+00
      -5     1     3     3     0   512 -1.052363852E+01  1.011791512E+01  6.097341712E+01  6.287638085E+01  4.750000000E+00  0.00000E+00  9.000E+00
       1     1     1     2   501     0  6.774937659E+00 -3.007638923E+01  1.329249600E+03  1.329607080E+03  0.000000000E+00  0.00000E+00  9.000E+00
      21     1     3     3   512   502  5.551191970E-01 -1.092290604E+00 -3.602230707E-01  1.277112660E+00  4.148307713E-08  0.00000E+00  9.000E+00
      21     1     4     4   507   511  5.186403127E+00  4.700833172E+00  6.905958202E+00  9.833049812E+00  8.429369702E-08  0.00000E+00  9.000E+00
#rwgt            1          17  -30.490244741677653                1     5963197           0       11110           0
<weights>
-.82583E+01
</weights>
</event>
<event>
     13  10001 -1.35503E+01  1.78747E+01 -1.00000E+00  7.52676E-01
      21    -1     0     0   511   501  0.000000000E+00  0.000000000E+00  5.127311103E+02  5.127311103E+02  0.000000000E+00  0.00000E+00  9.000E+00
      21    -1     0     0   507   502  0.000000000E+00  0.000000000E+00 -2.058928831E+02  2.058928831E+02  0.000000000E+00  0.00000E+00  9.000E+00
      -6     2     1     2     0   501 -2.002288074E+01  8.733476393E+01  3.928517997E+02  4.372414075E+02  1.697622903E+02  0.00000E+00  9.000E+00
       6     2     1     2   507     0  1.558106883E+01 -1.046488268E+02 -1.255976828E+02  2.379497842E+02  1.721951661E+02  0.00000E+00  9.000E+00
     -24     2     3     3     0     0 -2.460721769E+01  1.212191746E+01  3.245427415E+02  3.354245211E+02  8.018205718E+01  0.00000E+00  9.000E+00
      24     2     4     4     0     0 -9.813191606E+00 -1.839483459E+01  1.008606077E-01  8.332990852E+01  8.067958113E+01  0.00000E+00  9.000E+00
     -11     1     6     6     0     0  2.003872385E+00 -4.944407246E+01  5.048637616E+00  4.974153745E+01  0.000000000E+00  0.00000E+00  9.000E+00
      12     1     6     6     0     0 -1.181706399E+01  3.104923787E+01 -4.947777008E+00  3.358837107E+01  5.990192664E-07  0.00000E+00  9.000E+00
      13     1     5     5     0     0  2.476958714E+01 -1.270273589E+01  1.418482951E+02  1.445539027E+02  0.000000000E+00  0.00000E+00  9.000E+00
     -14     1     5     5     0     0 -4.937680484E+01  2.482465335E+01  1.826944463E+02  1.908706185E+02  0.000000000E+00  0.00000E+00  9.000E+00
       5     1     4     4   507     0  2.539426044E+01 -8.625399226E+01 -1.256985434E+02  1.546198757E+02  4.750000000E+00  0.00000E+00  9.000E+00
      -5     1     3     3     0   501  4.584336955E+00  7.521284647E+01  6.830905818E+01  1.018168864E+02  4.750000000E+00  0.00000E+00  9.000E+00
      21     1     1     2   511   502  4.441811906E+00  1.731406291E+01  3.958411035E+01  4.343280166E+01  4.768371582E-07  0.00000E+00  9.000E+00
#rwgt            1          17  -50.798988899843174                1     5972053           0           1           0
<weights>
-.13507E+02
</weights>
</event>
<event>
     15  10001  1.35503E+01  2.10621E+01 -1.00000E+00  1.97971E-01
      21    -1     0     0   502   512  0.000000000E+00  0.000000000E+00  6.703560774E+02  6.703560774E+02  0.000000000E+00  0.00000E+00  9.000E+00
      21    -1     0     0   507   502  0.000000000E+00  0.000000000E+00 -3.797453954E+02  3.797453954E+02  0.000000000E+00  0.00000E+00  9.000E+00
      -6     2     1     2     0   501  7.484430944E+00 -1.303788624E+02  2.970294691E+02  3.674511453E+02  1.724504979E+02  0.00000E+00  9.000E+00
       6     2     1     2   507     0 -2.562661662E+01  1.410780727E+02  3.003500398E+02  3.751593112E+02  1.731317887E+02  0.00000E+00  9.000E+00
     -24     2     3     3     0     0 -3.318238530E+01 -1.361627250E+02  1.777345850E+02  2.406188164E+02  8.164847670E+01  0.00000E+00  9.000E+00
      24     2     4     4     0     0 -4.802288703E+01  1.547111838E+02  2.941708754E+02  3.453791390E+02  8.067526032E+01  0.00000E+00  9.000E+00
     -11     1     6     6     0     0  1.085148597E+01  7.647502426E+01  1.739657418E+02  1.903424898E+02  0.000000000E+00  0.00000E+00  9.000E+00
      12     1     6     6     0     0 -5.887437300E+01  7.823615956E+01  1.202051336E+02  1.550366492E+02  4.473129043E-06  0.00000E+00  9.000E+00
      13     1     5     5     0     0 -2.263438943E+01 -1.371412974E+02  1.253380993E+02  1.871622028E+02  0.000000000E+00  0.00000E+00  9.000E+00
     -14     1     5     5     0     0 -1.054799588E+01  9.785724413E-01  5.239648569E+01  5.345661357E+01  1.348699152E-06  0.00000E+00  9.000E+00
       5     1     4     4   513     0  2.327615269E+01 -1.228288232E+01  3.956198371E+00  2.703446851E+01  4.750000000E+00  0.00000E+00  9.000E+00
      -5     1     3     3     0   511  2.397313679E+01  8.017251412E+00  6.228852947E+01  6.738999192E+01  4.750000000E+00  0.00000E+00  9.000E+00
      21     1     1     2   501   512  1.814218568E+01 -1.069921036E+01 -3.067688269E+02  3.074910164E+02  9.344061824E-06  0.00000E+00  9.000E+00
      21     1     3     3   511   501  1.669367945E+01 -2.233388811E+00  5.700635463E+01  5.944233700E+01  6.743495762E-07  0.00000E+00  9.000E+00
      21     1     4     4   507   513 -8.798822828E-01 -1.350228777E+00  2.222966047E+00  2.745703667E+00  8.940696716E-08  0.00000E+00  9.000E+00
#rwgt            1          17   3.1478817170487652                1     5984036           0       11110           0
<weights>
0.65406E+01
</weights>
</event>
<event>
     15  10001  1.35503E+01  3.72869E+01 -1.00000E+00  4.58573E-01
      21    -1     0     0   507   511  0.000000000E+00  0.000000000E+00  1.594062760E+02  1.594062760E+02  0.000000000E+00  0.00000E+00  9.000E+00
      21    -1     0     0   501   502  0.000000000E+00  0.000000000E+00 -4.463761885E+02  4.463761885E+02  0.000000000E+00  0.00000E+00  9.000E+00
      -6     2     1     2     0   502  1.133876984E+02 -8.890192928E+01 -2.074065620E+02  3.063169475E+02  1.733558976E+02  0.00000E+00  9.000E+00
       6     2     1     2   507     0 -1.484695567E+02  7.626947749E+01 -3.629765858E+01  2.423495320E+02  1.719172277E+02  0.00000E+00  9.000E+00
     -24     2     3     3     0     0 -6.976323556E+00 -5.717805264E+01 -8.155584157E+01  1.289986393E+02  8.167799497E+01  0.00000E+00  9.000E+00
      24     2     4     4     0     0 -1.294576556E+02 -6.378223282E+00 -2.258620521E+01  1.543258712E+02  8.066208241E+01  0.00000E+00  9.000E+00
     -11     1     6     6     0     0 -7.486388540E+01  1.236690234E+01  2.460495672E+01  7.976807322E+01  0.000000000E+00  0.00000E+00  9.000E+00
      12     1     6     6     0     0 -5.459377021E+01 -1.874512562E+01 -4.719116192E+01  7.455779801E+01  0.000000000E+00  0.00000E+00  9.000E+00
      13     1     5     5     0     0 -6.470657483E+00  1.287402509E+01 -5.023723646E+01  5.226270044E+01  0.000000000E+00  0.00000E+00  9.000E+00
     -14     1     5     5     0     0 -5.056660733E-01 -7.005207773E+01 -3.131860511E+01  7.673593890E+01  2.500555153E-06  0.00000E+00  9.000E+00
       5     1     4     4   512     0 -6.560036056E+00  6.409371377E+01 -1.034921186E+01  6.542711139E+01  4.750000000E+00  0.00000E+00  9.000E+00
      -5     1     3     3     0   514  1.180006497E+02 -3.070625112E+01 -1.247931635E+02  1.745363095E+02  4.750000000E+00  0.00000E+00  9.000E+00
      21     1     1     2   501   511  3.508185837E+01  1.263245179E+01 -4.326569204E+01  5.711598491E+01  1.507891493E-06  0.00000E+00  9.000E+00
      21     1     4     4   507   512 -1.245186508E+01  1.855398700E+01 -3.362241518E+00  2.259654942E+01  1.632340424E-07  0.00000E+00  9.000E+00
      21     1     3     3   514   502  2.363372238E+00 -1.017625520E+00 -1.057556863E+00  2.781998662E+00  2.107342426E-08  0.00000E+00  9.000E+00
#rwgt            1          17   25.016185964741013                1     5990832           0       11011           0
<weights>
0.20413E+02
</weights>
</event>
<event>
     15  10001  1.35503E+01  7.54695E+01 -1.00000E+00  5.85277E-01
      21    -1     0     0   512   501  0.000000000E+00  0.000000000E+00  3.859079374E+02  3.859079374E+02  0.000000000E+00  0.00000E+00  9.000E+00
      21    -1     0     0   507   502  0.000000000E+00  0.000000000E+00 -2.042884712E+02  2.042884712E+02  0.000000000E+00  0.00000E+00  9.000E+00
      -6     2     1     2     0   501 -4.185660169E+01  1.534492568E+01  2.046692771E+02  2.708594699E+02  1.717204054E+02  0.00000E+00  9.000E+00
       6     2     1     2   507     0  1.131249035E+02  9.484040580E+00  4.893310720E+01  2.150431761E+02  1.759600176E+02  0.00000E+00  9.000E+00
     -24     2     3     3     0     0 -1.075384952E+01 -4.788551371E+01  6.672884585E+01  1.156259725E+02  8.067192167E+01  0.00000E+00  9.000E+00
      24     2     4     4     0     0  4.198131485E+01 -5.837661797E+01  1.736707901E+01  1.111638110E+02  8.297901613E+01  0.00000E+00  9.000E+00
     -11     1     6     6     0     0  2.983867384E+01 -5.376194996E+01 -2.535545912E+01  6.651009719E+01  0.000000000E+00  0.00000E+00  9.000E+00
      12     1     6     6     0     0  1.214264100E+01 -4.614668007E+00  4.272253814E+01  4.465371380E+01  6.743495762E-07  0.00000E+00  9.000E+00
      13     1     5     5     0     0  6.781301399E+00 -3.296975104E+01 -1.032405541E+01  3.520762208E+01  0.000000000E+00  0.00000E+00  9.000E+00
     -14     1     5     5     0     0 -1.753515092E+01 -1.491576267E+01  7.705290125E+01  8.041835042E+01  9.536743164E-07  0.00000E+00  9.000E+00
       5     1     4     4   511     0  6.481659362E+01  5.937531298E+01  2.535973628E+01  9.160948272E+01  4.750000000E+00  0.00000E+00  9.000E+00
      -5     1     3     3     0   513 -3.132065448E+01  6.308177399E+01  1.355527864E+02  1.528313253E+02  4.750000000E+00  0.00000E+00  9.000E+00
      21     1     1     2   512   502 -7.126830182E+01 -2.482896626E+01 -7.198291803E+01  1.042937625E+02  3.015782986E-06  0.00000E+00  9.000E+00
      21     1     4     4   507   511  6.326995033E+00  8.485345574E+00  6.206291905E+00  1.226988243E+01  1.460009660E-07  0.00000E+00  9.000E+00
      21     1     3     3   513   501  2.179023160E-01  1.486653994E-01  2.387644850E+00  2.402172090E+00  4.214684851E-08  0.00000E+00  9.000E+00
#rwgt            1          17   11.614153939234122                1     5998110           0       11011           0
<weights>
0.16759E+02
</weights>
</event>
<event>
     13  10001  1.35503E+01  2.72856E+02 -1.00000E+00  1.06948E-01
      21    -1     0     0   502   511  0.000000000E+00  0.000000000E+00  9.763731868E+02  9.763731868E+02  0.000000000E+00  0.00000E+00  9.000E+00
      21    -1     0     0   507   502  0.000000000E+00  0.000000000E+00 -4.674979810E+02  4.674979810E+02  0.000000000E+00  0.00000E+00  9.000E+00
      -6     2     1     2     0   501 -4.681910211E+01 -9.695370387E+01  1.034022984E+01  2.048883170E+02  1.740122211E+02  0.00000E+00  9.000E+00
       6     2     1     2   507     0 -5.329437150E+01 -1.568723722E+02 -2.831362918E+02  4.110575188E+02  2.476951611E+02  0.00000E+00  9.000E+00
     -24     2     3     3     0     0 -3.420241077E+00  1.335969244E+01  2.946729144E+01  8.471796489E+01  7.822169059E+01  0.00000E+00  9.000E+00
      24     2     4     4     0     0  1.810725821E+01 -5.916381096E+00 -4.331763617E-01  8.268346694E+01  8.045801203E+01  0.00000E+00  9.000E+00
     -11     1     6     6     0     0  3.964575352E+01 -6.053043433E-01 -2.707683305E+01  4.801361321E+01  0.000000000E+00  0.00000E+00  9.000E+00
      12     1     6     6     0     0 -2.153849531E+01 -5.311076752E+00  2.664365669E+01  3.466985374E+01  3.371747881E-07  0.00000E+00  9.000E+00
      13     1     5     5     0     0  6.077392628E+00  1.541269729E+01 -2.466924675E+01  2.971628634E+01  0.000000000E+00  0.00000E+00  9.000E+00
     -14     1     5     5     0     0 -9.497633705E+00 -2.053004844E+00  5.413653819E+01  5.500167854E+01  1.507891493E-06  0.00000E+00  9.000E+00
       5     1     4     4   507     0 -7.140162970E+01 -1.509559911E+02 -2.827031154E+02  3.283740518E+02  4.750000000E+00  0.00000E+00  9.000E+00
      -5     1     3     3     0   501 -4.339886103E+01 -1.103133963E+02 -1.912706160E+01  1.201703521E+02  4.750000000E+00  0.00000E+00  9.000E+00
      21     1     1     2   501   511  1.001134736E+02  2.538260760E+02  7.816712677E+02  8.279253320E+02  0.000000000E+00  0.00000E+00  9.000E+00
#rwgt            2         113   1.6141876224181528                1     6014788           0           1           0
<weights>
0.13550E+02
</weights>
</event>
<event>
     14  10001 -1.35503E+01  3.10202E+01 -1.00000E+00  7.51194E-01
      21    -1     0     0   502   512  0.000000000E+00  0.000000000E+00  2.795732060E+02  2.795732060E+02  0.000000000E+00  0.00000E+00  9.000E+00
      21    -1     0     0   507   502  0.000000000E+00  0.000000000E+00 -1.843729990E+02  1.843729990E+02  0.000000000E+00  0.00000E+00  9.000E+00
      -6     2     1     2     0   501 -7.042465201E+01 -4.090729705E+00  9.664954881E+01  2.099707516E+02  1.725404751E+02  0.00000E+00  9.000E+00
       6     2     1     2   507     0  1.013079951E+02  7.000889548E+00 -4.052369996E+01  2.040850197E+02  1.723258619E+02  0.00000E+00  9.000E+00
     -24     2     3     3     0     0 -9.340045270E+01  4.380254182E+01  9.125934865E+01  1.563678633E+02  7.402926931E+01  0.00000E+00  9.000E+00
      24     2     4     4     0     0  1.148986636E+02  3.448902686E+01 -1.873516236E+01  1.443637135E+02  7.809404332E+01  0.00000E+00  9.000E+00
     -11     1     6     6     0     0  8.027450670E+01 -1.606706948E+01 -1.060072289E+01  8.255012097E+01  0.000000000E+00  0.00000E+00  9.000E+00
      12     1     6     6     0     0  3.462415693E+01  5.055609634E+01 -8.134439474E+00  6.181359257E+01  2.457562462E-06  0.00000E+00  9.000E+00
      13     1     5     5     0     0  6.200637094E+00  2.346014187E+01  1.008649081E+01  2.627857404E+01  0.000000000E+00  0.00000E+00  9.000E+00
     -14     1     5     5     0     0 -9.960108979E+01  2.034239995E+01  8.117285784E+01  1.300892892E+02  2.697398305E-06  0.00000E+00  9.000E+00
       5     1     4     4   513     0 -2.781843066E+01 -2.921154990E+01 -1.195331212E+01  4.233938949E+01  4.750000000E+00  0.00000E+00  9.000E+00
      -5     1     3     3     0   501  2.297580068E+01 -4.789327152E+01  5.390200152E+00  5.360288828E+01  4.750000000E+00  0.00000E+00  9.000E+00
      21     1     1     2   501   512 -3.088334306E+01 -2.910159843E+00  3.907435815E+01  4.989043369E+01  4.768371582E-07  0.00000E+00  9.000E+00
      21     1     4     4   507   513  1.422776211E+01  1.723412594E+00 -9.835225479E+00  1.738191664E+01  4.129530925E-07  0.00000E+00  9.000E+00
#rwgt            1          17  -14.993033495225925                1     6019979           0         110           0
<weights>
-.99676E+01
</weights>
</event>
<event>
     15  10001  1.35503E+01  1.45576E+02 -1.00000E+00  4.76677E-01
      21    -1     0     0   507   501  0.000000000E+00  0.000000000E+00  2.187448435E+02  2.187448435E+02  0.000000000E+00  0.00000E+00  9.000E+00
       2    -1     0     0   501     0  0.000000000E+00  0.000000000E+00 -1.419548807E+03  1.419548807E+03  0.000000000E+00  0.00000E+00  9.000E+00
      -6     2     1     2     0   502  6.970181780E+01  3.323775089E+01 -5.002483074E+02  5.347570532E+02  1.724924501E+02  0.00000E+00  9.000E+00
       6     2     1     2   507     0 -2.652638229E+01 -1.722642692E+02  1.182359421E+02  2.719043636E+02  1.719698157E+02  0.00000E+00  9.000E+00
     -24     2     3     3     0     0 -5.890869296E+00  5.329006128E+01 -1.747360853E+02  1.999050198E+02  8.096162350E+01  0.00000E+00  9.000E+00
      24     2     4     4     0     0 -6.781834784E+01 -7.904790368E+01  2.609377933E+01  1.343419694E+02  8.074020092E+01  0.00000E+00  9.000E+00
     -11     1     6     6     0     0 -1.202237512E+00 -4.668365926E+01 -1.574185798E+01  4.928098528E+01  0.000000000E+00  0.00000E+00  9.000E+00
      12     1     6     6     0     0 -6.661611033E+01 -3.236424442E+01  4.183563731E+01  8.506098413E+01  4.978326086E-06  0.00000E+00  9.000E+00
      13     1     5     5     0     0 -3.335225230E+01  7.679487607E+00 -1.145363971E+02  1.195405100E+02  0.000000000E+00  0.00000E+00  9.000E+00
     -14     1     5     5     0     0  2.746138300E+01  4.561057367E+01 -6.019968819E+01  8.036450987E+01  1.907348633E-06  0.00000E+00  9.000E+00
       5     1     4     4   512     0  3.845664786E+01 -8.757014293E+01  8.520363313E+01  1.281782559E+02  4.750000000E+00  0.00000E+00  9.000E+00
      -5     1     3     3     0   511  7.107917350E+01 -1.800103891E+01 -3.087013265E+02  3.173253186E+02  4.750000000E+00  0.00000E+00  9.000E+00
       2     1     1     2   502     0 -4.317543551E+01  1.390265183E+02 -8.187915978E+02  8.316322334E+02  0.000000000E+00  0.00000E+00  9.000E+00
      21     1     3     3   511   502  4.513513597E+00 -2.051271477E+00 -1.681089562E+01  1.752671479E+01  0.000000000E+00  0.00000E+00  9.000E+00
      21     1     4     4   507   512  2.835317690E+00 -5.646222574E+00  6.938529683E+00  9.384138209E+00  2.230201594E-07  0.00000E+00  9.000E+00
#rwgt            1          17   21.597651220759612                1     6027254           0       11110           0
<weights>
-.50565E+01
</weights>
</event>
<event>
     15  10001 -1.35503E+01  1.06209E+02 -1.00000E+00  1.81790E-01
      21    -1     0     0   511   501  0.000000000E+00  0.000000000E+00  2.476634207E+02  2.476634207E+02  0.000000000E+00  0.00000E+00  9.000E+00
       2    -1     0     0   507     0  0.000000000E+00  0.000000000E+00 -2.701413286E+02  2.701413286E+02  0.000000000E+00  0.00000E+00  9.000E+00
      -6     2     1     2     0   501  1.880477663E+01 -7.477469216E+01 -1.536146564E+00  1.801472552E+02  1.628060183E+02  0.00000E+00  9.000E+00
       6     2     1     2   507     0  8.071153150E+01  1.118794227E+02  2.716833588E+01  2.210605899E+02  1.705822658E+02  0.00000E+00  9.000E+00
     -24     2     3     3     0     0 -3.678688255E+01 -2.119232707E+01 -2.610913933E+01  9.735720871E+01  8.363222750E+01  0.00000E+00  9.000E+00
      24     2     4     4     0     0  9.769531093E+01  2.241619526E+01  1.784108518E+01  1.286117483E+02  7.858637221E+01  0.00000E+00  9.000E+00
     -11     1     6     6     0     0  7.438521430E+01  5.027266730E+01  4.420876874E+00  8.988907239E+01  0.000000000E+00  0.00000E+00  9.000E+00
      12     1     6     6     0     0  2.331009663E+01 -2.785647204E+01  1.342020831E+01  3.872267593E+01  7.907449699E-07  0.00000E+00  9.000E+00
      13     1     5     5     0     0  8.005670633E-01 -3.382941626E+01 -4.260488324E+01  5.440814634E+01  0.000000000E+00  0.00000E+00  9.000E+00
     -14     1     5     5     0     0 -3.758744961E+01  1.263708919E+01  1.649574391E+01  4.294906237E+01  1.261592536E-06  0.00000E+00  9.000E+00
       5     1     4     4   513     0 -1.844478926E+01  8.406548450E+01  7.315642373E+00  8.650605215E+01  4.750000000E+00  0.00000E+00  9.000E+00
      -5     1     3     3     0   512  3.674501974E+01 -3.243176682E+01  7.761029718E+00  4.984788919E+01  4.750000000E+00  0.00000E+00  9.000E+00
       2     1     1     2   511     0 -9.951630813E+01 -3.710473055E+01 -4.811009722E+01  1.165969042E+02  0.000000000E+00  0.00000E+00  9.000E+00
      21     1     3     3   512   501  1.884663943E+01 -2.115059827E+01  1.681196305E+01  3.294215729E+01  7.907449699E-07  0.00000E+00  9.000E+00
      21     1     4     4   507   513  1.461009836E+00  5.397742948E+00  2.011608324E+00  5.942789473E+00  1.397852826E-07  0.00000E+00  9.000E+00
#rwgt            1           6 -0.35581024272484052                1     6037493           0       11110           0
<weights>
-.13466E+02
</weights>
</event>
<event>
     15  10001 -1.35503E+01  4.16633E+01 -1.00000E+00  1.84723E-01
      21    -1     0     0   507   512  0.000000000E+00  0.000000000E+00  2.012306686E+03  2.012306686E+03  0.000000000E+00  0.00000E+00  9.000E+00
      21    -1     0     0   501   502  0.000000000E+00  0.000000000E+00 -3.169168659E+02  3.169168659E+02  0.000000000E+00  0.00000E+00  9.000E+00
      -6     2     1     2     0   502 -1.012832495E+02 -6.109331189E+01  7.946038351E+02  8.214209391E+02  1.713079539E+02  0.00000E+00  9.000E+00
       6     2     1     2   507     0  1.076519060E+02  1.991966525E+01  1.194285731E+03  1.211360495E+03  1.705582471E+02  0.00000E+00  9.000E+00
     -24     2     3     3     0     0 -5.373633332E+01 -1.589532004E+01  2.011677857E+02  2.238102348E+02  8.051266042E+01  0.00000E+00  9.000E+00
      24     2     4     4     0     0 -1.248638974E+00 -1.404844383E+01  6.390615653E+02  6.441608790E+02  7.965322296E+01  0.00000E+00  9.000E+00
     -11     1     6     6     0     0 -1.957571625E+01  2.776531557E+01  3.302755154E+02  3.320181282E+02  0.000000000E+00  0.00000E+00  9.000E+00
      12     1     6     6     0     0  1.832707728E+01 -4.181375940E+01  3.087860499E+02  3.121427507E+02  0.000000000E+00  0.00000E+00  9.000E+00
      13     1     5     5     0     0  1.672272905E+01  7.474604311E+00  7.696024222E+01  7.911003892E+01  0.000000000E+00  0.00000E+00  9.000E+00
     -14     1     5     5     0     0 -7.045906237E+01 -2.336992435E+01  1.242075435E+02  1.447001959E+02  2.697398305E-06  0.00000E+00  9.000E+00
       5     1     4     4   514     0  1.076434542E+02  3.017698146E+01  5.388923520E+02  5.503864941E+02  4.750000000E+00  0.00000E+00  9.000E+00
      -5     1     3     3     0   511 -3.462925154E+01 -4.575643643E+01  4.819298325E+02  4.853573554E+02  4.750000000E+00  0.00000E+00  9.000E+00
      21     1     1     2   501   512 -6.368656490E+00  4.117364664E+01 -2.934997454E+02  2.964421184E+02  1.525878906E-05  0.00000E+00  9.000E+00
      21     1     3     3   511   502 -1.291766462E+01  5.584445802E-01  1.115062169E+02  1.122533488E+02  2.336015456E-06  0.00000E+00  9.000E+00
      21     1     4     4   507   514  1.257090771E+00  3.791127623E+00  1.633181348E+01  1.681312158E+01  0.000000000E+00  0.00000E+00  9.000E+00
#rwgt            1          17  -95.381492056728291                1     6037963           0       11110           0
<weights>
-.13383E+02
</weights>
</event>
<event>
     15  10001  1.35503E+01  1.10308E+02 -1.00000E+00  1.56576E-01
      21    -1     0     0   511   501  0.000000000E+00  0.000000000E+00  9.632947449E+02  9.632947449E+02  0.000000000E+00  0.00000E+00  9.000E+00
      21    -1     0     0   501   502  0.000000000E+00  0.000000000E+00 -7.847548152E+02  7.847548152E+02  0.000000000E+00  0.00000E+00  9.000E+00
      -6     2     1     2     0   502  4.215765192E+01 -5.336308423E+01 -6.443095913E+02  6.650804978E+02  1.502409157E+02  0.00000E+00  9.000E+00
       6     2     1     2   507     0 -1.050886580E+02 -3.723191142E+01 -4.316869048E+01  2.099539952E+02  1.725899852E+02  0.00000E+00  9.000E+00
     -24     2     3     3     0     0  3.503889341E+01 -2.404187572E+01 -5.992996990E+02  6.062606224E+02  8.115465001E+01  0.00000E+00  9.000E+00
      24     2     4     4     0     0 -1.030794104E+02  2.869805510E+01 -4.940685598E+01  1.422834268E+02  7.971570041E+01  0.00000E+00  9.000E+00
     -11     1     6     6     0     0 -1.230228767E+01 -2.482428533E+01 -6.211045194E+00  2.839310667E+01  0.000000000E+00  0.00000E+00  9.000E+00
      12     1     6     6     0     0 -9.077712275E+01  5.352234042E+01 -4.319581079E+01  1.138903201E+02  4.768371582E-07  0.00000E+00  9.000E+00
      13     1     5     5     0     0 -6.721337556E+00 -2.797739444E+01 -7.570725233E+01  8.099073425E+01  0.000000000E+00  0.00000E+00  9.000E+00
     -14     1     5     5     0     0  4.176023097E+01  3.935518720E+00 -5.235924466E+02  5.252698881E+02  1.078959322E-05  0.00000E+00  9.000E+00
       5     1     4     4   513     0  1.023330048E+00 -6.260985607E+01  6.679417032E+00  6.315234274E+01  4.750000000E+00  0.00000E+00  9.000E+00
      -5     1     3     3     0   512 -4.156695086E-01 -1.036910729E+00  2.876852736E-01  4.888069948E+00  4.750000000E+00  0.00000E+00  9.000E+00
      21     1     1     2   511   507  6.293100607E+01  9.059499565E+01  8.660182114E+02  8.730150671E+02  1.525878906E-05  0.00000E+00  9.000E+00
      21     1     3     3   512   502  7.534428020E+00 -2.828429778E+01 -4.529757760E+01  5.393180548E+01  1.168007728E-06  0.00000E+00  9.000E+00
      21     1     4     4   507   513 -3.032577616E+00 -3.320110445E+00 -4.412515325E-01  4.518225678E+00  7.760773098E-08  0.00000E+00  9.000E+00
#rwgt            1          17   6.4467262477434844                1     6043156           0       11110           0
<weights>
0.19346E+02
</weights>
</event>
<event>
     15  10001 -1.35503E+01  1.46474E+02 -1.00000E+00  2.20863E-01
       2    -1     0     0   502     0  0.000000000E+00  0.000000000E+00  2.780783276E+03  2.780783276E+03  0.000000000E+00  0.00000E+00  9.000E+00
      21    -1     0     0   507   502  0.000000000E+00  0.000000000E+00 -2.297323620E+02  2.297323620E+02  0.000000000E+00  0.00000E+00  9.000E+00
      -6     2     1     2     0   501  1.987747695E+02  3.553486897E+01  3.177560020E+02  4.138440405E+02  1.718251353E+02  0.00000E+00  9.000E+00
       6     2     1     2   507     0 -5.482490013E+01 -6.260930624E+01 -1.281478376E+02  2.306905220E+02  1.728309976E+02  0.00000E+00  9.000E+00
     -24     2     3     3     0     0  5.635370307E+01  4.477024714E+01  2.049083678E+02  2.313621931E+02  7.975531539E+01  0.00000E+00  9.000E+00
      24     2     4     4     0     0 -6.660635655E+01 -9.454584096E+01 -6.175333278E+01  1.537155081E+02  8.024749562E+01  0.00000E+00  9.000E+00
     -11     1     6     6     0     0 -1.240843242E+01 -7.635091447E+01 -1.270688639E+01  7.838938893E+01  0.000000000E+00  0.00000E+00  9.000E+00
      12     1     6     6     0     0 -5.419792413E+01 -1.819492649E+01 -4.904644639E+01  7.532611919E+01  6.675720215E-06  0.00000E+00  9.000E+00
      13     1     5     5     0     0  1.178008700E+01  1.746047556E+00 -4.690846439E+00  1.279934264E+01  0.000000000E+00  0.00000E+00  9.000E+00
     -14     1     5     5     0     0  4.457361607E+01  4.302419959E+01  2.095992142E+02  2.185628505E+02  4.672030912E-06  0.00000E+00  9.000E+00
       5     1     4     4   511     0  1.220132304E+01  2.060483710E+01 -2.904527219E+01  3.794235012E+01  4.750000000E+00  0.00000E+00  9.000E+00
      -5     1     3     3     0   512  1.192406049E+02 -9.655173675E+00  9.988244480E+01  1.559185990E+02  4.750000000E+00  0.00000E+00  9.000E+00
       2     1     1     2   501     0 -1.439498694E+02  2.707443728E+01  2.361442750E+03  2.365981076E+03  0.000000000E+00  0.00000E+00  9.000E+00
      21     1     4     4   507   511 -4.198666189E-01  1.133169761E+01 -3.734923263E+01  3.903266372E+01  2.236564522E-06  0.00000E+00  9.000E+00
      21     1     3     3   512   501  2.318046154E+01  4.197955017E-01  1.296518939E+01  2.656324832E+01  7.152557373E-07  0.00000E+00  9.000E+00
#rwgt            1          17  -26.938905532089876                1     6050772           0       11011           0
<weights>
-.15004E+02
</weights>
</event>
<event>
     13  10001  1.35503E+01  6.00231E+01 -1.00000E+00  1.34694E-01
      21    -1     0     0   502   511  0.000000000E+00  0.000000000E+00  3.500079661E+02  3.500079661E+02  0.000000000E+00  0.00000E+00  9.000E+00
      21    -1     0     0   507   502  0.000000000E+00  0.000000000E+00 -2.498342276E+02  2.498342276E+02  0.000000000E+00  0.00000E+00  9.000E+00
      -6     2     1     2     0   501 -2.310953185E+01 -1.669927248E+01  1.935425959E+02  2.603086213E+02  1.717233989E+02  0.00000E+00  9.000E+00
       6     2     1     2   507     0 -3.217844629E+00 -3.724186269E+01 -1.913091220E+02  2.246637668E+02  1.117019118E+02  0.00000E+00  9.000E+00
     -24     2     3     3     0     0  7.422865852E+00 -6.664533391E+01  7.507809513E+01  1.280844298E+02  7.919723053E+01  0.00000E+00  9.000E+00
      24     2     4     4     0     0 -2.239375071E+01 -3.626751223E+01 -1.806089135E+02  2.021755100E+02  8.024054264E+01  0.00000E+00  9.000E+00
     -11     1     6     6     0     0 -6.396374033E+00  1.630832951E+01 -1.161764343E+02  1.174897404E+02  0.000000000E+00  0.00000E+00  9.000E+00
      12     1     6     6     0     0 -1.599737667E+01 -5.257584174E+01 -6.443247928E+01  8.468576965E+01  1.348699152E-06  0.00000E+00  9.000E+00
      13     1     5     5     0     0  5.850603719E+00 -5.804639909E+01  9.205738658E+01  1.089870471E+02  0.000000000E+00  0.00000E+00  9.000E+00
     -14     1     5     5     0     0  1.572262134E+00 -8.598934817E+00 -1.697929146E+01  1.909738272E+01  3.371747881E-07  0.00000E+00  9.000E+00
       5     1     4     4   507     0  1.917590608E+01 -9.743504622E-01 -1.070020848E+01  2.248825681E+01  4.750000000E+00  0.00000E+00  9.000E+00
      -5     1     3     3     0   501 -3.053239770E+01  4.994606143E+01  1.184645008E+02  1.322241914E+02  4.750000000E+00  0.00000E+00  9.000E+00
      21     1     1     2   501   511  2.632737648E+01  5.394113517E+01  9.794026457E+01  1.148698056E+02  1.348699152E-06  0.00000E+00  9.000E+00
#rwgt            2         113   4.5337154338565782                1     6059408           0           1           0
<weights>
0.13550E+02
</weights>
</event>
<event>
     15  10001 -1.35503E+01  3.09743E+01 -1.00000E+00  6.09255E-01
      21    -1     0     0   507   512  0.000000000E+00  0.000000000E+00  1.609092065E+02  1.609092065E+02  0.000000000E+00  0.00000E+00  9.000E+00
      21    -1     0     0   501   502  0.000000000E+00  0.000000000E+00 -1.431538742E+03  1.431538742E+03  0.000000000E+00  0.00000E+00  9.000E+00
      -6     2     1     2     0   502 -9.390266054E+01  2.042100409E+02 -8.415549656E+02  8.861843391E+02  1.630597202E+02  0.00000E+00  9.000E+00
       6     2     1     2   507     0  7.548491330E+01 -2.291136787E+02 -2.112656973E+01  2.971414082E+02  1.722081142E+02  0.00000E+00  9.000E+00
     -24     2     3     3     0     0 -6.089853459E+01  1.156791969E+02 -6.931001739E+02  7.101287077E+02  8.249013493E+01  0.00000E+00  9.000E+00
      24     2     4     4     0     0  2.409253294E+01 -2.888325731E+01  2.722183467E+00  8.846160900E+01  8.002095530E+01  0.00000E+00  9.000E+00
     -11     1     6     6     0     0 -2.424990328E+01  4.258414503E+00 -1.291069000E+01  2.780068020E+01  0.000000000E+00  0.00000E+00  9.000E+00
      12     1     6     6     0     0  4.834243622E+01 -3.314167181E+01  1.563287347E+01  6.066092880E+01  2.523185073E-06  0.00000E+00  9.000E+00
      13     1     5     5     0     0 -2.759401590E+01  1.002617414E+02 -3.514169865E+02  3.664802108E+02  0.000000000E+00  0.00000E+00  9.000E+00
     -14     1     5     5     0     0 -3.330451870E+01  1.541745556E+01 -3.416831873E+02  3.436484969E+02  9.344061824E-06  0.00000E+00  9.000E+00
       5     1     4     4   513     0  4.565238297E+01 -1.824881514E+02 -2.579184308E+01  1.899311642E+02  4.750000000E+00  0.00000E+00  9.000E+00
      -5     1     3     3     0   511 -2.843058610E+01  7.745204791E+01 -1.305914218E+02  1.545438446E+02  4.750000000E+00  0.00000E+00  9.000E+00
      21     1     1     2   501   512  1.841774723E+01  2.490363784E+01 -4.079480007E+02  4.091222016E+02  5.394796609E-06  0.00000E+00  9.000E+00
      21     1     4     4   507   513  5.739997399E+00 -1.774226999E+01  1.943089875E+00  1.874863496E+01  2.598106231E-07  0.00000E+00  9.000E+00
      21     1     3     3   511   502 -4.573539847E+00  1.107879604E+01 -1.786336995E+01  2.151178688E+01  4.129530925E-07  0.00000E+00  9.000E+00
#rwgt            1          17  -19.206884893168326                1     6059799           0       11011           0
<weights>
-.15600E+01
</weights>
</event>
<event>
     15  10001  1.35503E+01  5.68193E+01 -1.00000E+00  3.61653E-01
      21    -1     0     0   507   501  0.000000000E+00  0.000000000E+00  5.049164158E+02  5.049164158E+02  0.000000000E+00  0.00000E+00  9.000E+00
      21    -1     0     0   501   511  0.000000000E+00  0.000000000E+00 -1.990658291E+02  1.990658291E+02  0.000000000E+00  0.00000E+00  9.000E+00
      -6     2     1     2     0   502  9.223756333E+01 -3.562061471E+01 -8.475772470E+01  2.173151615E+02  1.739695698E+02  0.00000E+00  9.000E+00
       6     2     1     2   507     0 -1.225427261E+02  8.368335614E+01  3.480541183E+02  4.156791313E+02  1.721274152E+02  0.00000E+00  9.000E+00
     -24     2     3     3     0     0 -1.568938224E+01 -2.252177674E+01 -6.072095266E+01  1.047451676E+02  8.081540019E+01  0.00000E+00  9.000E+00
      24     2     4     4     0     0 -3.088920629E+01 -1.642548356E+01  1.461607408E+02  1.704813249E+02  8.047968939E+01  0.00000E+00  9.000E+00
     -11     1     6     6     0     0 -3.806001106E+01 -3.210014088E+01  1.448802036E+02  1.531967914E+02  0.000000000E+00  0.00000E+00  9.000E+00
      12     1     6     6     0     0  7.170804775E+00  1.567465732E+01  1.280537195E+00  1.728453351E+01  2.961547213E-07  0.00000E+00  9.000E+00
      13     1     5     5     0     0 -3.141084444E+01  8.124863993E+00  2.718460518E+00  3.255832599E+01  0.000000000E+00  0.00000E+00  9.000E+00
     -14     1     5     5     0     0  1.572146221E+01 -3.064664074E+01 -6.343941317E+01  7.218684164E+01  1.651812370E-06  0.00000E+00  9.000E+00
       5     1     4     4   512     0 -8.572899859E+01  9.881090097E+01  1.805605652E+02  2.230195856E+02  4.750000000E+00  0.00000E+00  9.000E+00
      -5     1     3     3     0   513  1.081032285E+02 -1.206602575E+01 -2.347117600E+01  1.113793320E+02  4.750000000E+00  0.00000E+00  9.000E+00
      21     1     1     2   502   511  3.030516282E+01 -4.806274143E+01  4.255419304E+01  7.098795217E+01  1.168007728E-06  0.00000E+00  9.000E+00
      21     1     4     4   507   512 -5.924521272E+00  1.297938726E+00  2.133281229E+01  2.217822079E+01  5.331201500E-07  0.00000E+00  9.000E+00
      21     1     3     3   513   502 -1.762829614E-01 -1.032812210E+00 -5.655960456E-01  1.190661846E+00  1.490116119E-08  0.00000E+00  9.000E+00
#rwgt            1          17   9.4937644351886803                1     6067472           0       11011           0
<weights>
0.18094E+02
</weights>
</event>
<event>
     14  10001  1.35503E+01  4.76792E+01 -1.00000E+00  5.66381E-01
      21    -1     0     0   507   512  0.000000000E+00  0.000000000E+00  6.457179373E+02  6.457179373E+02  0.000000000E+00  0.00000E+00  9.000E+00
      21    -1     0     0   501   502  0.000000000E+00  0.000000000E+00 -1.155529642E+02  1.155529642E+02  0.000000000E+00  0.00000E+00  9.000E+00
      -6     2     1     2     0   502  1.478535462E+01 -4.639925658E+01  9.677213122E+01  2.011316475E+02  1.694626700E+02  0.00000E+00  9.000E+00
       6     2     1     2   507     0  3.149772032E+01  5.785261247E+01  4.667345966E+02  5.019587161E+02  1.725756005E+02  0.00000E+00  9.000E+00
     -24     2     3     3     0     0  4.807833111E+01  1.346234146E+01  1.456758151E+01  9.366052512E+01  7.789299696E+01  0.00000E+00  9.000E+00
      24     2     4     4     0     0  7.881839301E+01  6.879805455E+00  2.438498014E+02  2.684257045E+02  7.956106057E+01  0.00000E+00  9.000E+00
     -11     1     6     6     0     0 -1.390142893E+01 -3.942731687E-01  1.113895067E+01  1.781800774E+01  0.000000000E+00  0.00000E+00  9.000E+00
      12     1     6     6     0     0  9.271982193E+01  7.274078624E+00  2.327108508E+02  2.506076967E+02  5.394796609E-06  0.00000E+00  9.000E+00
      13     1     5     5     0     0 -1.856206680E+01  1.766228314E+01  1.862969529E+00  2.569002189E+01  0.000000000E+00  0.00000E+00  9.000E+00
     -14     1     5     5     0     0  6.664039791E+01 -4.199941676E+00  1.270461198E+01  6.797050323E+01  1.735713456E-06  0.00000E+00  9.000E+00
       5     1     4     4   507     0 -4.732067268E+01  5.097280702E+01  2.228847951E+02  2.335330116E+02  4.750000000E+00  0.00000E+00  9.000E+00
      -5     1     3     3     0   511 -3.283808283E+01 -5.999713074E+01  8.069063688E+01  1.058845445E+02  4.750000000E+00  0.00000E+00  9.000E+00
      21     1     1     2   501   512 -4.628307494E+01 -1.145335589E+01 -3.334175464E+01  5.818053790E+01  1.261592536E-06  0.00000E+00  9.000E+00
      21     1     3     3   511   502 -4.548936612E-01  1.355326976E-01  1.513912831E+00  1.586577894E+00  0.000000000E+00  0.00000E+00  9.000E+00
#rwgt            1          17   12.228016625943122                1     6077573           0         111           0
<weights>
0.26659E+02
</weights>
</event>
<event>
     13  10001  1.35503E+01  1.67184E+02 -1.00000E+00  1.14557E-01
      21    -1     0     0   507   501  0.000000000E+00  0.000000000E+00  4.969241044E+02  4.969241044E+02  0.000000000E+00  0.00000E+00  9.000E+00
       3    -1     0     0   501     0  0.000000000E+00  0.000000000E+00 -2.681328705E+02  2.681328705E+02  0.000000000E+00  0.00000E+00  9.000E+00
      -6     2     1     2     0   502  3.956186024E+01 -4.487832453E+01  1.867764298E+02  2.609787273E+02  1.721779794E+02  0.00000E+00  9.000E+00
       6     2     1     2   507     0  9.910102458E+01 -4.851842962E+01  1.929644950E+02  2.788313641E+02  1.683347326E+02  0.00000E+00  9.000E+00
     -24     2     3     3     0     0  6.566067652E+01  1.241634266E+00  1.751609901E+02  2.065206723E+02  8.750171171E+01  0.00000E+00  9.000E+00
      24     2     4     4     0     0  8.147420849E+01  2.934233549E+01  8.645736475E+01  1.456422704E+02  7.897959049E+01  0.00000E+00  9.000E+00
     -11     1     6     6     0     0  8.890892184E+01  1.786738549E+01  9.350632455E+01  1.302592514E+02  0.000000000E+00  0.00000E+00  9.000E+00
      12     1     6     6     0     0 -7.434713343E+00  1.147495000E+01 -7.048959800E+00  1.538301902E+01  3.475518164E-07  0.00000E+00  9.000E+00
      13     1     5     5     0     0  6.546203129E+01  2.126228711E-02  5.266151613E+01  8.401495863E+01  0.000000000E+00  0.00000E+00  9.000E+00
     -14     1     5     5     0     0  1.986452361E-01  1.220371979E+00  1.224994740E+02  1.225057137E+02  2.697398305E-06  0.00000E+00  9.000E+00
       5     1     4     4   507     0  1.762681608E+01 -7.786076511E+01  1.065071303E+02  1.331890937E+02  4.750000000E+00  0.00000E+00  9.000E+00
      -5     1     3     3     0   502 -2.609881628E+01 -4.611995879E+01  1.161543966E+01  5.445805495E+01  4.750000000E+00  0.00000E+00  9.000E+00
       3     1     1     2   502     0 -1.386628848E+02  9.339675415E+01 -1.509496909E+02  2.252468834E+02  0.000000000E+00  0.00000E+00  9.000E+00
#rwgt            2         110  0.19668943971148228                1     6116620           0           1           0
<weights>
0.13550E+02
</weights>
</event>
<event>
     14  10001  1.35503E+01  2.40225E+01 -1.00000E+00  1.69971E-01
      21    -1     0     0   502   511  0.000000000E+00  0.000000000E+00  5.894855376E+02  5.894855376E+02  0.000000000E+00  0.00000E+00  9.000E+00
      21    -1     0     0   507   502  0.000000000E+00  0.000000000E+00 -1.887448577E+02  1.887448577E+02  0.000000000E+00  0.00000E+00  9.000E+00
      -6     2     1     2     0   501  1.203987213E+02 -2.359865288E+01  4.703604023E+02  5.158602451E+02  1.726850771E+02  0.00000E+00  9.000E+00
       6     2     1     2   507     0 -1.438910061E+02  1.857938202E+01 -4.953000306E+01  2.310543819E+02  1.728672644E+02  0.00000E+00  9.000E+00
     -24     2     3     3     0     0  2.894517382E+01 -1.855779542E+01  9.760377801E+01  1.314626404E+02  8.107844029E+01  0.00000E+00  9.000E+00
      24     2     4     4     0     0 -1.538276492E+02 -2.189644447E+01 -6.305787524E+01  1.869794998E+02  8.272023801E+01  0.00000E+00  9.000E+00
     -11     1     6     6     0     0 -5.402198475E+01  3.176786344E+01 -2.062164058E+01  6.597593534E+01  0.000000000E+00  0.00000E+00  9.000E+00
      12     1     6     6     0     0 -9.980566442E+01 -5.366430791E+01 -4.243623467E+01  1.210035644E+02  9.536743164E-07  0.00000E+00  9.000E+00
      13     1     5     5     0     0  5.157384339E+01 -1.070222995E+00  3.415733372E+01  6.186865238E+01  0.000000000E+00  0.00000E+00  9.000E+00
     -14     1     5     5     0     0 -2.262866957E+01 -1.748757243E+01  6.344644428E+01  6.959398802E+01  1.507891493E-06  0.00000E+00  9.000E+00
       5     1     4     4   507     0  9.936643075E+00  4.047582649E+01  1.352787219E+01  4.407488210E+01  4.750000000E+00  0.00000E+00  9.000E+00
      -5     1     3     3     0   512  4.991591013E+01 -1.240384408E+01  2.110834880E+02  2.173114237E+02  4.750000000E+00  0.00000E+00  9.000E+00
      21     1     1     2   501   511  2.349228483E+01  5.019270856E+00 -2.008971935E+01  3.131576839E+01  4.129530925E-07  0.00000E+00  9.000E+00
      21     1     3     3   512   501  4.153763733E+01  7.362986628E+00  1.616731363E+02  1.670861810E+02  1.907348633E-06  0.00000E+00  9.000E+00
#rwgt            1          17   39.642092916443836                1     6120610           0         111           0
<weights>
0.14198E+02
</weights>
</event>
<event>
     15  10001  1.35503E+01  1.77356E+00 -1.00000E+00  2.09262E-01
      21    -1     0     0   511   501  0.000000000E+00  0.000000000E+00  5.093397357E+01  5.093397357E+01  0.000000000E+00  0.00000E+00  9.000E+00
       2    -1     0     0   507     0  0.000000000E+00  0.000000000E+00 -9.227758949E+02  9.227758949E+02  0.000000000E+00  0.00000E+00  9.000E+00
      -6     2     1     2     0   501 -2.109213520E+01 -3.065791314E+01 -2.749877171E+02  3.253580220E+02  1.698670425E+02  0.00000E+00  9.000E+00
       6     2     1     2   507     0  1.967302266E+01  3.172169507E+01 -6.100829150E+02  6.350047755E+02  1.721528622E+02  0.00000E+00  9.000E+00
     -24     2     3     3     0     0 -4.329687955E+01 -2.529541649E+01 -5.255241247E+01  1.015243652E+02  7.092928026E+01  0.00000E+00  9.000E+00
      24     2     4     4     0     0  7.029547934E+01 -7.025282014E-01 -2.885708546E+02  3.077485612E+02  8.058592214E+01  0.00000E+00  9.000E+00
     -11     1     6     6     0     0  2.891725607E+01  1.706200018E+01 -2.366533930E+02  2.390233209E+02  0.000000000E+00  0.00000E+00  9.000E+00
      12     1     6     6     0     0  4.137822327E+01 -1.776452838E+01 -5.191746162E+01  6.872524027E+01  1.507891493E-06  0.00000E+00  9.000E+00
      13     1     5     5     0     0 -1.190921593E+01 -2.751394546E+01  9.916451218E+00  3.157819855E+01  0.000000000E+00  0.00000E+00  9.000E+00
     -14     1     5     5     0     0 -3.138766362E+01  2.218528972E+00 -6.246886369E+01  6.994616665E+01  1.168007728E-06  0.00000E+00  9.000E+00
       5     1     4     4   514     0 -5.038542232E+01  3.115132505E+01 -3.181646643E+02  3.236671314E+02  4.750000000E+00  0.00000E+00  9.000E+00
      -5     1     3     3     0   512  1.427715003E+01  3.750864723E-01 -1.228138834E+02  1.237327368E+02  4.750000000E+00  0.00000E+00  9.000E+00
      21     1     3     3   512   501  7.927594324E+00 -5.737583121E+00 -9.962142131E+01  1.001009201E+02  0.000000000E+00  0.00000E+00  9.000E+00
       2     1     1     2   511     0  1.419112539E+00 -1.063781934E+00  1.322871083E+01  1.334707094E+01  0.000000000E+00  0.00000E+00  9.000E+00
      21     1     4     4   507   514 -2.370343625E-01  1.272898224E+00 -3.347396110E+00  3.589082877E+00  4.214684851E-08  0.00000E+00  9.000E+00
#rwgt            1           6   2.4576613652679713                1     6132845           0      110110           0
<weights>
0.16101E+02
</weights>
</event>
<event>
     14  10001  1.35503E+01  1.68491E+02 -1.00000E+00  3.22195E-01
      21    -1     0     0   511   501  0.000000000E+00  0.000000000E+00  6.881587923E+02  6.881587923E+02  0.000000000E+00  0.00000E+00  9.000E+00
      21    -1     0     0   501   502  0.000000000E+00  0.000000000E+00 -3.920465787E+02  3.920465787E+02  0.000000000E+00  0.00000E+00  9.000E+00
      -6     2     1     2     0   502  1.743536983E+01 -8.777173866E+01 -2.378734296E+02  3.482348946E+02  2.380670138E+02  0.00000E+00  9.000E+00
       6     2     1     2   507     0  1.295243153E+02  1.701857195E+02  1.503377755E+02  3.129538900E+02  1.720434922E+02  0.00000E+00  9.000E+00
     -24     2     3     3     0     0  7.715920379E+01 -4.785531998E+01 -2.510275872E+01  1.228994215E+02  7.893316749E+01  0.00000E+00  9.000E+00
      24     2     4     4     0     0  1.094847684E+02  4.098536488E+01  5.861101710E+01  1.531706751E+02  7.974515497E+01  0.00000E+00  9.000E+00
     -11     1     6     6     0     0  9.489224910E+01  5.197392611E+01  7.248665563E+01  1.302311145E+02  0.000000000E+00  0.00000E+00  9.000E+00
      12     1     6     6     0     0  1.459251933E+01 -1.098856123E+01 -1.387563853E+01  2.293956065E+01  4.768371582E-07  0.00000E+00  9.000E+00
      13     1     5     5     0     0  4.678793186E+01 -5.401007304E+01 -4.648748398E+01  8.524837081E+01  0.000000000E+00  0.00000E+00  9.000E+00
     -14     1     5     5     0     0  3.037127193E+01  6.154753066E+00  2.138472526E+01  3.765105070E+01  9.830249847E-07  0.00000E+00  9.000E+00
       5     1     4     4   507     0  2.003954683E+01  1.292003546E+02  9.172675840E+01  1.597832149E+02  4.750000000E+00  0.00000E+00  9.000E+00
      -5     1     3     3     0   512 -5.807209553E+01 -3.856171109E+01 -2.117269065E+02  2.229578868E+02  4.750000000E+00  0.00000E+00  9.000E+00
      21     1     1     2   511   507 -1.469596851E+02 -8.241398081E+01  3.836478677E+02  4.190165864E+02  0.000000000E+00  0.00000E+00  9.000E+00
      21     1     3     3   512   502 -1.651738425E+00 -1.354707591E+00 -1.043764418E+00  2.377586306E+00  4.942156062E-08  0.00000E+00  9.000E+00
#rwgt            1          17   26.160754690574898                1     6133951           0         111           0
<weights>
0.18227E+02
</weights>
</event>
<event>
     14  10001  1.35503E+01  1.86606E+01 -1.00000E+00  2.80704E-01
      21    -1     0     0   502   512  0.000000000E+00  0.000000000E+00  8.407328236E+02  8.407328236E+02  0.000000000E+00  0.00000E+00  9.000E+00
      21    -1     0     0   507   502  0.000000000E+00  0.000000000E+00 -6.645142426E+01  6.645142426E+01  0.000000000E+00  0.00000E+00  9.000E+00
      -6     2     1     2     0   501 -6.709346948E+01  5.333519393E+01  3.935495757E+02  4.366259152E+02  1.685667368E+02  0.00000E+00  9.000E+00
       6     2     1     2   507     0  5.776586779E+01 -3.717307292E+01  3.099000514E+01  1.203190460E+02  9.379530678E+01  0.00000E+00  9.000E+00
     -24     2     3     3     0     0 -5.758525028E+00  7.903608936E+01  3.065879006E+02  3.264195103E+02  7.920664065E+01  0.00000E+00  9.000E+00
      24     2     4     4     0     0  5.698694671E+01 -3.252215113E+01  3.702585818E+01  1.113061767E+02  8.193258435E+01  0.00000E+00  9.000E+00
     -11     1     6     6     0     0  3.940462325E+01 -2.442658910E+01  6.343009080E+01  7.856690784E+01  0.000000000E+00  0.00000E+00  9.000E+00
      12     1     6     6     0     0  1.758232345E+01 -8.095562029E+00 -2.640423261E+01  3.273926882E+01  9.536743164E-07  0.00000E+00  9.000E+00
      13     1     5     5     0     0  1.403009732E+01  1.724117713E+01  1.300832670E+01  2.575496812E+01  0.000000000E+00  0.00000E+00  9.000E+00
     -14     1     5     5     0     0 -1.978862235E+01  6.179491223E+01  2.935795739E+02  3.006645422E+02  7.629394531E-06  0.00000E+00  9.000E+00
       5     1     4     4   507     0  7.789210866E-01 -4.650921788E+00 -6.035853038E+00  9.012869323E+00  4.750000000E+00  0.00000E+00  9.000E+00
      -5     1     3     3     0   511 -5.969862050E+01 -2.227360128E+01  8.240317301E+01  1.042731223E+02  4.750000000E+00  0.00000E+00  9.000E+00
      21     1     1     2   501   512  9.327601693E+00 -1.616212101E+01  3.497418185E+02  3.502392866E+02  0.000000000E+00  0.00000E+00  9.000E+00
      21     1     3     3   511   501 -1.636323955E+00 -3.427294142E+00  4.558502133E+00  5.933282642E+00  8.429369702E-08  0.00000E+00  9.000E+00
#rwgt            1          17   17.050851750467558                1     6152346           0         111           0
<weights>
0.16294E+02
</weights>
</event>
<event>
     15  10001 -1.35503E+01  1.10170E+02 -1.00000E+00  3.25399E-01
      21    -1     0     0   502   511  0.000000000E+00  0.000000000E+00  3.577838621E+02  3.577838621E+02  0.000000000E+00  0.00000E+00  9.000E+00
      21    -1     0     0   507   502  0.000000000E+00  0.000000000E+00 -2.202811238E+02  2.202811238E+02  0.000000000E+00  0.00000E+00  9.000E+00
      -6     2     1     2     0   501  5.232534758E+01 -6.116632201E+01  6.948298252E+01  2.025117549E+02  1.723480928E+02  0.00000E+00  9.000E+00
       6     2     1     2   507     0  1.299736230E+01 -2.754846583E+01  1.580258337E+02  2.332912752E+02  1.688928820E+02  0.00000E+00  9.000E+00
     -24     2     3     3     0     0  3.579895716E+01 -1.077817787E+02  4.374484740E+01  1.454640845E+02  7.967252380E+01  0.00000E+00  9.000E+00
      24     2     4     4     0     0  1.318276966E+01 -3.650772572E+01  1.587734035E+01  8.904875811E+01  7.855566135E+01  0.00000E+00  9.000E+00
     -11     1     6     6     0     0  2.307565683E+01  1.939952889E+01  1.089376112E+01  3.205466722E+01  0.000000000E+00  0.00000E+00  9.000E+00
      12     1     6     6     0     0 -9.892887169E+00 -5.590725460E+01  4.983579223E+00  5.699409088E+01  1.692184158E-06  0.00000E+00  9.000E+00
      13     1     5     5     0     0 -3.625382750E+00  2.735932732E+00 -1.397678822E+01  1.469623547E+01  0.000000000E+00  0.00000E+00  9.000E+00
     -14     1     5     5     0     0  3.942433991E+01 -1.105177114E+02  5.772163562E+01  1.307678490E+02  2.236564522E-06  0.00000E+00  9.000E+00
       5     1     4     4   512     0 -2.501756243E-01  1.630073960E+01  1.065800492E+02  1.079242608E+02  4.750000000E+00  0.00000E+00  9.000E+00
      -5     1     3     3     0   513  1.631900374E+01  4.548194807E+01  2.231598703E+01  5.343672202E+01  4.750000000E+00  0.00000E+00  9.000E+00
      21     1     1     2   501   511 -6.532270988E+01  8.871478783E+01 -9.000607786E+01  1.422619558E+02  0.000000000E+00  0.00000E+00  9.000E+00
      21     1     4     4   507   512  6.476825739E-02 -7.341479706E+00  3.556844415E+01  3.631825626E+01  0.000000000E+00  0.00000E+00  9.000E+00
      21     1     3     3   513   501  2.073866790E-01  1.133508621E+00  3.422148093E+00  3.610948435E+00  5.960464478E-08  0.00000E+00  9.000E+00
#rwgt            1          17  -27.668913742476644                1     6161661           0       11011           0
<weights>
-.14089E+02
</weights>
</event>
<event>
     15  10001 -1.35503E+01  1.95807E+01 -1.00000E+00  1.66577E-01
      21    -1     0     0   502   501  0.000000000E+00  0.000000000E+00  6.682414515E+02  6.682414515E+02  0.000000000E+00  0.00000E+00  9.000E+00
       1    -1     0     0   507     0  0.000000000E+00  0.000000000E+00 -3.274283392E+02  3.274283392E+02  0.000000000E+00  0.00000E+00  9.000E+00
      -6     2     1     2     0   501  2.804970495E+01  2.406423006E+02  4.758690365E+02  5.610152409E+02  1.720210968E+02  0.00000E+00  9.000E+00
       6     2     1     2   507     0 -3.338401462E+01 -2.218022502E+02  1.497165674E+01  2.833545914E+02  1.724962125E+02  0.00000E+00  9.000E+00
     -24     2     3     3     0     0 -4.358951556E+01  1.429858194E+02  2.691629630E+02  3.183194467E+02  8.083055773E+01  0.00000E+00  9.000E+00
      24     2     4     4     0     0 -5.902024083E+01 -7.739439931E+01 -1.423431524E+00  1.338542151E+02  9.187841353E+01  0.00000E+00  9.000E+00
     -11     1     6     6     0     0  1.610113124E+01 -1.333990149E+01 -2.476300999E+01  3.240996857E+01  0.000000000E+00  0.00000E+00  9.000E+00
      12     1     6     6     0     0 -7.512137207E+01 -6.405449782E+01  2.333957847E+01  1.014442465E+02  2.977847099E-06  0.00000E+00  9.000E+00
      13     1     5     5     0     0  1.513969107E+01  4.099162346E+01  3.406561483E+01  5.540748644E+01  0.000000000E+00  0.00000E+00  9.000E+00
     -14     1     5     5     0     0 -5.872920663E+01  1.019941959E+02  2.350973482E+02  2.629119603E+02  4.672030912E-06  0.00000E+00  9.000E+00
       5     1     4     4   512     0  2.810873522E+00 -8.001449834E+01  1.121868990E+01  8.098544596E+01  4.750000000E+00  0.00000E+00  9.000E+00
      -5     1     3     3     0   511  6.518982196E+01  9.069932846E+01  1.609601312E+02  1.959765481E+02  4.750000000E+00  0.00000E+00  9.000E+00
      21     1     4     4   507   512  2.282535268E+01 -6.439335254E+01  5.176398364E+00  6.851493032E+01  2.418215606E-06  0.00000E+00  9.000E+00
      21     1     3     3   511   501  6.449398552E+00  6.957152773E+00  4.574594227E+01  4.671924604E+01  9.536743164E-07  0.00000E+00  9.000E+00
       1     1     1     2   502     0  5.334309667E+00 -1.884005046E+01 -1.500275810E+02  1.512999584E+02  0.000000000E+00  0.00000E+00  9.000E+00
#rwgt            1          17  -133.24995856265448                1     6167199           0      101101           0
<weights>
-.16945E+02
</weights>
</event>
<event>
     15  10001  1.35503E+01  1.06558E+01 -1.00000E+00  1.99445E-01
      21    -1     0     0   507   501  0.000000000E+00  0.000000000E+00  5.881461684E+01  5.881461684E+01  0.000000000E+00  0.00000E+00  9.000E+00
       2    -1     0     0   501     0  0.000000000E+00  0.000000000E+00 -1.256158562E+03  1.256158562E+03  0.000000000E+00  0.00000E+00  9.000E+00
      -6     2     1     2     0   502  1.850900984E+01 -8.015970436E+01 -8.798111277E+02  8.898286329E+02  1.046862641E+02  0.00000E+00  9.000E+00
       6     2     1     2   507     0 -2.242326780E+01  7.024885584E+01 -1.385610410E+02  2.458558316E+02  1.892306083E+02  0.00000E+00  9.000E+00
     -24     2     3     3     0     0  9.394214635E+00 -5.515119495E+01 -5.207487809E+02  5.295900762E+02  7.846305093E+01  0.00000E+00  9.000E+00
      24     2     4     4     0     0  2.510347604E+01  1.046122814E+02 -8.235585579E+01  1.643177666E+02  9.297272448E+01  0.00000E+00  9.000E+00
     -11     1     6     6     0     0 -2.163295720E+01  8.735617852E+01 -6.696006122E+01  1.121727978E+02  0.000000000E+00  0.00000E+00  9.000E+00
      12     1     6     6     0     0  4.673643324E+01  1.725610286E+01 -1.539579457E+01  5.214496878E+01  1.846782373E-06  0.00000E+00  9.000E+00
      13     1     5     5     0     0 -4.189125364E+00  3.653779006E+00 -3.180116769E+02  3.180602545E+02  0.000000000E+00  0.00000E+00  9.000E+00
     -14     1     5     5     0     0  1.358334000E+01 -5.880497395E+01 -2.027371040E+02  2.115298216E+02  2.697398305E-06  0.00000E+00  9.000E+00
       5     1     4     4   511     0 -4.149515281E+01 -3.019510208E+01 -5.129443346E+01  7.271363902E+01  4.750000000E+00  0.00000E+00  9.000E+00
      -5     1     3     3     0   512  5.803774037E-01 -1.580597627E+01 -2.108565996E+02  2.115023258E+02  4.750000000E+00  0.00000E+00  9.000E+00
       2     1     1     2   502     0  3.914257965E+00  9.910848516E+00 -1.789717761E+02  1.792887140E+02  0.000000000E+00  0.00000E+00  9.000E+00
      21     1     3     3   512   502  8.534417801E+00 -9.202533139E+00 -1.482057472E+02  1.487362310E+02  3.303624740E-06  0.00000E+00  9.000E+00
      21     1     4     4   507   511 -6.031591038E+00 -4.168323456E+00 -4.910751764E+00  8.824425974E+00  3.153981341E-07  0.00000E+00  9.000E+00
#rwgt            1          17   19.297414178552259                1     6170483           0       11110           0
<weights>
0.13022E+02
</weights>
</event>
<event>
     13  10001  1.35503E+01  1.31835E+02 -1.00000E+00  1.18660E-01
      21    -1     0     0   502   511  0.000000000E+00  0.000000000E+00  1.928654712E+02  1.928654712E+02  0.000000000E+00  0.00000E+00  9.000E+00
      21    -1     0     0   507   502  0.000000000E+00  0.000000000E+00 -3.621868131E+02  3.621868131E+02  0.000000000E+00  0.00000E+00  9.000E+00
      -6     2     1     2     0   501  3.092266833E+01 -6.408550589E+01 -5.680936498E+01  1.953060612E+02  1.727830724E+02  0.00000E+00  9.000E+00
       6     2     1     2   507     0 -2.991059955E+01 -6.774588715E+01 -1.247432362E+02  2.273447724E+02  1.750446267E+02  0.00000E+00  9.000E+00
     -24     2     3     3     0     0  8.139191254E+01 -6.537442110E+01 -2.592841952E+01  1.359343406E+02  8.311079140E+01  0.00000E+00  9.000E+00
      24     2     4     4     0     0 -6.881317827E-01 -9.948522034E+01 -1.321287447E+02  1.833169842E+02  7.905269707E+01  0.00000E+00  9.000E+00
     -11     1     6     6     0     0  3.334355099E+01 -4.169734261E+01 -3.030165546E+01  6.138934026E+01  0.000000000E+00  0.00000E+00  9.000E+00
      12     1     6     6     0     0 -3.403168277E+01 -5.778787772E+01 -1.018270893E+02  1.219276439E+02  1.907348633E-06  0.00000E+00  9.000E+00
      13     1     5     5     0     0  6.663041976E+01 -6.976180389E+01 -4.899612644E+01  1.081986253E+02  0.000000000E+00  0.00000E+00  9.000E+00
     -14     1     5     5     0     0  1.476149278E+01  4.387382792E+00  2.306770692E+01  2.773571523E+01  4.768371582E-07  0.00000E+00  9.000E+00
       5     1     4     4   507     0 -2.922246777E+01  3.173933319E+01  7.385508540E+00  4.402778816E+01  4.750000000E+00  0.00000E+00  9.000E+00
      -5     1     3     3     0   501 -5.046924420E+01  1.288915206E+00 -3.088094545E+01  5.937172058E+01  4.750000000E+00  0.00000E+00  9.000E+00
      21     1     1     2   501   511 -1.012068781E+00  1.318313930E+02  1.223125929E+01  1.324014508E+02  2.023048729E-06  0.00000E+00  9.000E+00
#rwgt            2         113   11.454848220660297                1     6177169           0           1           0
<weights>
0.13550E+02
</weights>
</event>
<event>
     14  10001  1.35503E+01  6.33690E+01 -1.00000E+00  7.51373E-01
      -2    -1     0     0     0   512  0.000000000E+00  0.000000000E+00  5.733630867E+02  5.733630867E+02  0.000000000E+00  0.00000E+00  9.000E+00
       2    -1     0     0   507     0  0.000000000E+00  0.000000000E+00 -1.385518301E+02  1.385518301E+02  0.000000000E+00  0.00000E+00  9.000E+00
      -6     2     1     2     0   501 -1.676708059E+01 -2.723317088E+01  4.080490119E+02  4.516590467E+02  1.909688920E+02  0.00000E+00  9.000E+00
       6     2     1     2   507     0  3.071059380E+01 -3.458276356E+01  6.079836717E+01  1.883247298E+02  1.721355695E+02  0.00000E+00  9.000E+00
     -24     2     3     3     0     0  2.397820151E+01 -5.916932578E+01  3.772410424E+02  3.912290087E+02  8.169069661E+01  0.00000E+00  9.000E+00
      24     2     4     4     0     0  6.225588852E+01  2.690533245E+01  2.636333331E+01  1.088005504E+02  8.088783500E+01  0.00000E+00  9.000E+00
     -11     1     6     6     0     0 -2.132863808E+00  2.104759096E+01 -2.010062482E+01  2.918193468E+01  0.000000000E+00  0.00000E+00  9.000E+00
      12     1     6     6     0     0  6.438875233E+01  5.857741484E+00  4.646395813E+01  7.961861570E+01  2.336015456E-06  0.00000E+00  9.000E+00
      13     1     5     5     0     0 -2.257954439E+01 -5.171441667E+01  2.140091850E+02  2.213236272E+02  0.000000000E+00  0.00000E+00  9.000E+00
     -14     1     5     5     0     0  4.655774589E+01 -7.454909111E+00  1.632318574E+02  1.699053814E+02  1.907348633E-06  0.00000E+00  9.000E+00
       5     1     4     4   511     0 -2.621205612E+01 -5.013651378E+01  1.951856259E+01  6.003564512E+01  4.750000000E+00  0.00000E+00  9.000E+00
      -5     1     3     3     0   501 -4.074528209E+01  3.193615491E+01  3.080796956E+01  6.043003799E+01  4.750000000E+00  0.00000E+00  9.000E+00
      21     1     1     2   501   512 -1.394351322E+01  6.181593444E+01 -3.403612258E+01  7.193114034E+01  8.259061849E-07  0.00000E+00  9.000E+00
      21     1     4     4   507   511 -5.333238594E+00 -1.135158222E+01  1.491647127E+01  1.948853427E+01  4.460403188E-07  0.00000E+00  9.000E+00
#rwgt            1           6  0.41406511173816429                1     6180584           0         110           0
<weights>
0.31151E+02
</weights>
</event>
<event>
     15  10001 -1.35503E+01  5.63144E+01 -1.00000E+00  1.66183E-01
      21    -1     0     0   511   501  0.000000000E+00  0.000000000E+00  4.056029851E+02  4.056029851E+02  0.000000000E+00  0.00000E+00  9.000E+00
      21    -1     0     0   501   502  0.000000000E+00  0.000000000E+00 -1.530315173E+02  1.530315173E+02  0.000000000E+00  0.00000E+00  9.000E+00
      -6     2     1     2     0   502  4.522251732E+01 -3.153765739E+01  2.127439877E+02  2.796426762E+02  1.729170962E+02  0.00000E+00  9.000E+00
       6     2     1     2   507     0 -9.965641547E+01  1.710635103E+01  7.631591959E+01  2.118895305E+02  1.698500079E+02  0.00000E+00  9.000E+00
     -24     2     3     3     0     0  1.561972663E+01 -4.518349181E+01  4.128227222E+01  1.009921763E+02  7.880145856E+01  0.00000E+00  9.000E+00
      24     2     4     4     0     0 -8.234621855E+00 -3.386042296E+01  5.366353160E+01  1.046191047E+02  8.277104081E+01  0.00000E+00  9.000E+00
     -11     1     6     6     0     0 -2.747506448E+01  1.800777953E+01  2.986046805E+01  4.439377033E+01  0.000000000E+00  0.00000E+00  9.000E+00
      12     1     6     6     0     0  1.924044263E+01 -5.186820249E+01  2.380306355E+01  6.022533434E+01  7.539457465E-07  0.00000E+00  9.000E+00
      13     1     5     5     0     0  2.296866395E+01 -3.400460975E+01 -1.458158334E+01  4.354877243E+01  0.000000000E+00  0.00000E+00  9.000E+00
     -14     1     5     5     0     0 -7.348937322E+00 -1.117888206E+01  5.586385556E+01  5.744340382E+01  6.743495762E-07  0.00000E+00  9.000E+00
       5     1     4     4   513     0 -8.631539767E+01  4.902606577E+01  2.117171672E+01  1.016105658E+02  4.750000000E+00  0.00000E+00  9.000E+00
      -5     1     3     3     0   512  1.618255949E+01  3.490923284E+00  1.517826925E+02  1.527567020E+02  4.750000000E+00  0.00000E+00  9.000E+00
      21     1     1     2   511   507  5.443389815E+01  1.443130636E+01 -3.648843943E+01  6.710229566E+01  1.784161275E-06  0.00000E+00  9.000E+00
      21     1     3     3   512   502  1.342023120E+01  1.015491113E+01  1.967902296E+01  2.589379791E+01  4.129530925E-07  0.00000E+00  9.000E+00
      21     1     4     4   507   513 -5.106395943E+00  1.940708218E+00  1.480671275E+00  5.659860010E+00  1.365713982E-07  0.00000E+00  9.000E+00
#rwgt            1          17  -12.467426554416056                1     6183229           0       11110           0
<weights>
-.13614E+02
</weights>
</event>
<event>
     15  10001  1.35503E+01  1.30135E+01 -1.00000E+00  4.51413E-01
      21    -1     0     0   502   511  0.000000000E+00  0.000000000E+00  1.884469455E+02  1.884469455E+02  0.000000000E+00  0.00000E+00  9.000E+00
      21    -1     0     0   507   502  0.000000000E+00  0.000000000E+00 -7.526071241E+02  7.526071241E+02  0.000000000E+00  0.00000E+00  9.000E+00
      -6     2     1     2     0   501 -1.005384509E+02  2.021104367E+01 -1.653983427E+02  2.610327961E+02  1.739685099E+02  0.00000E+00  9.000E+00
       6     2     1     2   507     0  1.018270577E+02 -7.261544116E+00 -1.896595213E+02  4.705144048E+02  4.183199630E+02  0.00000E+00  9.000E+00
     -24     2     3     3     0     0  1.756059976E+01  1.015997075E+01 -5.763008842E+01  1.003315386E+02  7.958386071E+01  0.00000E+00  9.000E+00
      24     2     4     4     0     0  5.260652180E+01  5.566724761E+01  1.075210776E+02  1.553916599E+02  8.197253945E+01  0.00000E+00  9.000E+00
     -11     1     6     6     0     0 -2.917044544E+00  6.292425230E-01  6.749605491E+01  6.756199022E+01  0.000000000E+00  0.00000E+00  9.000E+00
      12     1     6     6     0     0  5.552356635E+01  5.503800508E+01  4.002502273E+01  8.782966964E+01  3.337860107E-06  0.00000E+00  9.000E+00
      13     1     5     5     0     0 -1.755204199E+01 -2.282774304E+01 -5.441285029E+00  2.930507828E+01  0.000000000E+00  0.00000E+00  9.000E+00
     -14     1     5     5     0     0  3.511264175E+01  3.298771379E+01 -5.218880339E+01  7.102646036E+01  1.507891493E-06  0.00000E+00  9.000E+00
       5     1     4     4   512     0  3.247545706E+01 -7.037071417E+01 -2.778133689E+02  2.884606094E+02  4.750000000E+00  0.00000E+00  9.000E+00
      -5     1     3     3     0   514 -1.173012198E+02  9.945154151E+00 -1.080365627E+02  1.598528812E+02  4.750000000E+00  0.00000E+00  9.000E+00
      21     1     4     4   507   512  1.674507885E+01  7.441922447E+00 -1.936722999E+01  2.666213557E+01  4.129530925E-07  0.00000E+00  9.000E+00
      21     1     1     2   501   511 -1.288606859E+00 -1.294949955E+01 -2.091023146E+02  2.095068687E+02  5.394796609E-06  0.00000E+00  9.000E+00
      21     1     3     3   514   501 -7.978308474E-01  1.059187668E-01  2.683083484E-01  8.483762231E-01  2.235174179E-08  0.00000E+00  9.000E+00
#rwgt            1          17   8.8864113873823722                1     6192711           0      100111           0
<weights>
0.28550E+02
</weights>
</event>
<event>
     15  10001 -1.35503E+01  2.96203E+01 -1.00000E+00  6.31347E-01
      21    -1     0     0   507   511  0.000000000E+00  0.000000000E+00  5.489488705E+02  5.489488705E+02  0.000000000E+00  0.00000E+00  9.000E+00
      21    -1     0     0   501   502  0.000000000E+00  0.000000000E+00 -5.142348422E+02  5.142348422E+02  0.000000000E+00  0.00000E+00  9.000E+00
      -6     2     1     2     0   502  2.921485942E+00  1.052517402E+02  2.136743050E+02  2.907684973E+02  1.667427555E+02  0.00000E+00  9.000E+00
       6     2     1     2   507     0 -9.511270470E-01 -7.569707007E+01  2.661985759E+02  3.262720042E+02  1.728027425E+02  0.00000E+00  9.000E+00
     -24     2     3     3     0     0  4.494831379E+01  9.780533695E+01  1.974855505E+02  2.441475273E+02  9.498019583E+01  0.00000E+00  9.000E+00
      24     2     4     4     0     0 -1.398014003E+01 -1.181016007E+01  4.243305531E+01  9.280508841E+01  8.048165043E+01  0.00000E+00  9.000E+00
     -11     1     6     6     0     0  3.283457299E+01  3.403996094E+00  1.318310596E+01  3.554561374E+01  0.000000000E+00  0.00000E+00  9.000E+00
      12     1     6     6     0     0 -4.681471302E+01 -1.521415616E+01  2.924994934E+01  5.725947467E+01  1.784161275E-06  0.00000E+00  9.000E+00
      13     1     5     5     0     0  5.422422176E+01  6.979703045E+01  1.955300756E+02  2.145784289E+02  0.000000000E+00  0.00000E+00  9.000E+00
     -14     1     5     5     0     0 -9.275907965E+00  2.800830650E+01  1.955474920E+00  2.956909846E+01  8.544487468E-07  0.00000E+00  9.000E+00
       5     1     4     4   512     0  8.316099043E+00 -5.476452937E+01  1.744847711E+02  1.831278489E+02  4.750000000E+00  0.00000E+00  9.000E+00
      -5     1     3     3     0   513 -4.222099531E+01  7.891829331E+00  1.585206940E+01  4.602981664E+01  4.750000000E+00  0.00000E+00  9.000E+00
      21     1     1     2   501   511 -1.970358895E+00 -2.955467013E+01 -4.451588526E+02  4.461432112E+02  0.000000000E+00  0.00000E+00  9.000E+00
      21     1     4     4   507   512  4.712913937E+00 -9.122380627E+00  4.928074947E+01  5.033906688E+01  6.743495762E-07  0.00000E+00  9.000E+00
      21     1     3     3   513   502  1.941674642E-01 -4.454260838E-01  3.366851291E-01  5.911533443E-01  1.117587090E-08  0.00000E+00  9.000E+00
#rwgt            1          17  -364.57038703268182                1     6198406           0       11011           0
<weights>
-.13480E+02
</weights>
</event>
<event>
     15  10001  1.35503E+01  1.08890E+01 -1.00000E+00  1.68213E-01
      -1    -1     0     0     0   511  0.000000000E+00  0.000000000E+00  4.864121404E+02  4.864121404E+02  0.000000000E+00  0.00000E+00  9.000E+00
       1    -1     0     0   507     0  0.000000000E+00  0.000000000E+00 -4.253034133E+02  4.253034133E+02  0.000000000E+00  0.00000E+00  9.000E+00
      -6     2     1     2     0   501 -5.542623453E+01  1.346486646E+02 -7.569391873E+01  2.377629401E+02  1.720445175E+02  0.00000E+00  9.000E+00
       6     2     1     2   507     0  4.532723387E+01 -1.305767549E+02 -2.228055234E+02  3.141796219E+02  1.730944439E+02  0.00000E+00  9.000E+00
     -24     2     3     3     0     0  2.095944216E+01  8.493927896E+01 -7.249318026E+01  1.396041493E+02  8.111767989E+01  0.00000E+00  9.000E+00
      24     2     4     4     0     0  7.708104890E+01 -1.447710065E+02 -1.956023440E+02  2.675794882E+02  8.023947356E+01  0.00000E+00  9.000E+00
     -11     1     6     6     0     0  5.434797245E-01 -4.326614988E+01 -9.858275565E+01  1.076606465E+02  0.000000000E+00  0.00000E+00  9.000E+00
      12     1     6     6     0     0  7.653756917E+01 -1.015048566E+02 -9.701958835E+01  1.599188417E+02  3.303624740E-06  0.00000E+00  9.000E+00
      13     1     5     5     0     0  1.892048852E+01 -1.139686612E+01 -7.294412508E+00  2.326116714E+01  0.000000000E+00  0.00000E+00  9.000E+00
     -14     1     5     5     0     0  2.038953645E+00  9.633614507E+01 -6.519876775E+01  1.163429821E+02  0.000000000E+00  0.00000E+00  9.000E+00
       5     1     4     4   514     0 -3.114775215E+01  1.075536449E+01 -2.065682790E+01  3.918070147E+01  4.750000000E+00  0.00000E+00  9.000E+00
      -5     1     3     3     0   512 -5.915219031E+01  4.230357013E+01  1.219670570E+01  7.389110768E+01  4.750000000E+00  0.00000E+00  9.000E+00
      21     1     3     3   512   501 -1.723348637E+01  7.405815485E+00 -1.539744417E+01  2.426768309E+01  7.348554138E-07  0.00000E+00  9.000E+00
      21     1     1     2   501   511  1.009900065E+01 -4.071909661E+00  3.596081692E+02  3.597729917E+02  6.607249480E-06  0.00000E+00  9.000E+00
      21     1     4     4   507   514 -6.060628786E-01  3.438887060E+00 -6.546351488E+00  7.419432204E+00  2.064765462E-07  0.00000E+00  9.000E+00
#rwgt            1           2  0.31731751068587011                1     6207581           0      110110           0
<weights>
0.18307E+02
</weights>
</event>
<event>
     15  10001  1.35503E+01  1.14126E+01 -1.00000E+00  2.66314E-01
      21    -1     0     0   507   511  0.000000000E+00  0.000000000E+00  1.547227802E+02  1.547227802E+02  0.000000000E+00  0.00000E+00  9.000E+00
      21    -1     0     0   501   502  0.000000000E+00  0.000000000E+00 -1.121794657E+03  1.121794657E+03  0.000000000E+00  0.00000E+00  9.000E+00
      -6     2     1     2     0   502  1.641287301E+01  1.274317032E+01 -1.879847895E+02  2.562258444E+02  1.728630426E+02  0.00000E+00  9.000E+00
       6     2     1     2   507     0 -2.705140187E+01 -8.611713827E+00  5.654214723E+01  1.845844281E+02  1.734025857E+02  0.00000E+00  9.000E+00
     -24     2     3     3     0     0 -7.298093445E+00 -1.591057481E+00 -1.201021717E+01  7.788775829E+01  7.659284524E+01  0.00000E+00  9.000E+00
      24     2     4     4     0     0  1.964585236E+01 -1.132776372E+01 -2.653671633E+01  8.817729233E+01  8.097382184E+01  0.00000E+00  9.000E+00
     -11     1     6     6     0     0  1.723885905E+01  2.224531940E+01  1.720395539E+01  3.298497503E+01  0.000000000E+00  0.00000E+00  9.000E+00
      12     1     6     6     0     0  2.406993311E+00 -3.357308312E+01 -4.374067172E+01  5.519231730E+01  9.536743164E-07  0.00000E+00  9.000E+00
      13     1     5     5     0     0  2.577548372E+01  3.570966972E+00  1.902936367E+01  3.223730832E+01  0.000000000E+00  0.00000E+00  9.000E+00
     -14     1     5     5     0     0 -3.307357716E+01 -5.162024452E+00 -3.103958085E+01  4.565044996E+01  3.371747881E-07  0.00000E+00  9.000E+00
       5     1     4     4   513     0 -4.540685297E+01  4.813748105E+00  8.131078292E+01  9.337537355E+01  4.750000000E+00  0.00000E+00  9.000E+00
      -5     1     3     3     0   512  1.561838483E+01  1.214003182E+01 -1.338395760E+02  1.353769143E+02  4.750000000E+00  0.00000E+00  9.000E+00
      21     1     1     2   501   511  1.063852885E+01 -4.131456491E+00 -8.356292347E+02  8.357071647E+02  0.000000000E+00  0.00000E+00  9.000E+00
      21     1     3     3   512   502  8.092581628E+00  2.194195977E+00 -4.213499627E+01  4.296117182E+01  0.000000000E+00  0.00000E+00  9.000E+00
      21     1     4     4   507   513 -1.290401265E+00 -2.097698216E+00  1.768080642E+00  3.031762257E+00  6.989264130E-08  0.00000E+00  9.000E+00
#rwgt            1          17   27.392480320782912                1     6210776           0       11110           0
<weights>
0.12009E+02
</weights>
</event>
<event>
     15  10001  1.35503E+01  4.15053E+01 -1.00000E+00  2.33909E-01
      21    -1     0     0   512   501  0.000000000E+00  0.000000000E+00  1.112586974E+02  1.112586974E+02  0.000000000E+00  0.00000E+00  9.000E+00
       2    -1     0     0   507     0  0.000000000E+00  0.000000000E+00 -1.582833173E+03  1.582833173E+03  0.000000000E+00  0.00000E+00  9.000E+00
      -6     2     1     2     0   501  1.283934322E+02  2.429931303E+01 -3.463760153E+02  4.085422037E+02  1.727861631E+02  0.00000E+00  9.000E+00
       6     2     1     2   507     0 -1.522763814E+02  9.646135657E+00 -1.188046481E+03  1.210233251E+03  1.729998153E+02  0.00000E+00  9.000E+00
     -24     2     3     3     0     0  3.373472321E+01 -3.653290004E+01 -1.009214980E+02  1.381582699E+02  8.018649787E+01  0.00000E+00  9.000E+00
      24     2     4     4     0     0 -1.344180938E+02 -3.924373299E+01 -7.442075156E+02  7.614332025E+02  7.954496247E+01  0.00000E+00  9.000E+00
     -11     1     6     6     0     0 -3.511286961E+01 -7.257264929E+00 -6.476719248E+01  7.402952605E+01  0.000000000E+00  0.00000E+00  9.000E+00
      12     1     6     6     0     0 -9.930522421E+01 -3.198646806E+01 -6.794403231E+02  6.874036764E+02  7.629394531E-06  0.00000E+00  9.000E+00
      13     1     5     5     0     0 -6.303890213E+00 -4.898562479E+01 -7.164238681E+01  8.701702165E+01  0.000000000E+00  0.00000E+00  9.000E+00
     -14     1     5     5     0     0  4.003861342E+01  1.245272476E+01 -2.927911121E+01  5.114124824E+01  1.348699152E-06  0.00000E+00  9.000E+00
       5     1     4     4   511     0 -3.899692680E+00  4.586480416E+01 -4.005865668E+02  4.032504778E+02  4.750000000E+00  0.00000E+00  9.000E+00
      -5     1     3     3     0   514  8.536929373E+01  5.372122668E+01 -2.093296163E+02  2.324119990E+02  4.750000000E+00  0.00000E+00  9.000E+00
       2     1     1     2   512     0  2.388294921E+01 -3.394544869E+01  6.284802089E+01  7.531641574E+01  0.000000000E+00  0.00000E+00  9.000E+00
      21     1     4     4   507   511 -1.395859493E+01  3.025064481E+00 -4.325239847E+01  4.554957037E+01  0.000000000E+00  0.00000E+00  9.000E+00
      21     1     3     3   514   501  9.289415277E+00  7.110986384E+00 -3.612490096E+01  3.797193481E+01  6.743495762E-07  0.00000E+00  9.000E+00
#rwgt            1           6   2.8475871854614589                1     6218566           0       11011           0
<weights>
0.15483E+02
</weights>
</event>
<event>
     15  10001 -1.35503E+01  1.44488E+01 -1.00000E+00  1.51474E-01
      21    -1     0     0   502   513  0.000000000E+00  0.000000000E+00  1.781505405E+03  1.781505405E+03  0.000000000E+00  0.00000E+00  9.000E+00
      21    -1     0     0   507   502  0.000000000E+00  0.000000000E+00 -4.041609406E+01  4.041609406E+01  0.000000000E+00  0.00000E+00  9.000E+00
      -6     2     1     2     0   501 -1.740304070E+01 -4.200978914E+01  9.971366240E+02  1.012858481E+03  1.718521689E+02  0.00000E+00  9.000E+00
       6     2     1     2   507     0  1.744800971E+01  2.756104598E+01  2.057968478E+02  2.707132473E+02  1.728272993E+02  0.00000E+00  9.000E+00
     -24     2     3     3     0     0  3.946303758E+01 -9.945509541E+00  7.487758455E+02  7.537987083E+02  7.675272932E+01  0.00000E+00  9.000E+00
      24     2     4     4     0     0 -3.738491098E+01  6.164300073E+01  1.374373304E+02  1.747150913E+02  8.024245916E+01  0.00000E+00  9.000E+00
     -11     1     6     6     0     0 -9.131201044E+00 -1.283764943E+01  6.554316761E+01  6.740987239E+01  0.000000000E+00  0.00000E+00  9.000E+00
      12     1     6     6     0     0 -2.825370994E+01  7.448065016E+01  7.189416275E+01  1.073052189E+02  1.907348633E-06  0.00000E+00  9.000E+00
      13     1     5     5     0     0  2.619755071E+01  2.245329535E+01  5.987048471E+02  5.996982208E+02  0.000000000E+00  0.00000E+00  9.000E+00
     -14     1     5     5     0     0  1.326548686E+01 -3.239880489E+01  1.500709984E+02  1.541004875E+02  3.303624740E-06  0.00000E+00  9.000E+00
       5     1     4     4   512     0  2.138688846E+01 -2.285898141E+01  2.677998873E+01  4.146881147E+01  4.750000000E+00  0.00000E+00  9.000E+00
      -5     1     3     3     0   511 -3.933896477E+01 -2.343373470E+01  2.190469692E+02  2.238321498E+02  4.750000000E+00  0.00000E+00  9.000E+00
      21     1     3     3   511   501 -1.752711350E+01 -8.630544903E+00  2.931380933E+01  3.522762312E+01  1.118282261E-06  0.00000E+00  9.000E+00
      21     1     4     4   507   512  3.344603224E+01 -1.122297334E+01  4.157952875E+01  5.452934452E+01  1.066240300E-06  0.00000E+00  9.000E+00
      21     1     1     2   501   513 -4.496901696E-02  1.444874316E+01  5.381558393E+02  5.383497707E+02  0.000000000E+00  0.00000E+00  9.000E+00
#rwgt            1          17  -11.054632697452018                1     6218875           0      111001           0
<weights>
-.15301E+02
</weights>
</event>
<event>
     14  10001 -1.35503E+01  3.90126E+01 -1.00000E+00  7.50614E-01
      21    -1     0     0   507   501  0.000000000E+00  0.000000000E+00  3.022103503E+02  3.022103503E+02  0.000000000E+00  0.00000E+00  9.000E+00
      21    -1     0     0   512   502  0.000000000E+00  0.000000000E+00 -4.208168843E+02  4.208168843E+02  0.000000000E+00  0.00000E+00  9.000E+00
      -6     2     1     2     0   502  1.089328755E+02  2.287390315E+02 -6.224784174E+01  3.137880648E+02  1.743566457E+02  0.00000E+00  9.000E+00
       6     2     1     2   507     0 -1.373441709E+02 -2.554744961E+02 -9.796606404E+01  3.522026889E+02  1.741227868E+02  0.00000E+00  9.000E+00
     -24     2     3     3     0     0  6.750046668E-01  1.464992372E+02 -6.204707803E+01  1.777522122E+02  7.926870078E+01  0.00000E+00  9.000E+00
      24     2     4     4     0     0 -1.149507481E+02 -2.222613484E+02 -1.354736052E+02  2.958532716E+02  8.100789527E+01  0.00000E+00  9.000E+00
     -11     1     6     6     0     0 -1.695014288E+00 -7.128048122E+01 -1.798318256E+01  7.353349530E+01  0.000000000E+00  0.00000E+00  9.000E+00
      12     1     6     6     0     0 -1.132557338E+02 -1.509808672E+02 -1.174904226E+02  2.223197763E+02  2.336015456E-06  0.00000E+00  9.000E+00
      13     1     5     5     0     0  9.864207809E+00 -4.817717932E+00  4.912651592E+00  1.202693425E+01  0.000000000E+00  0.00000E+00  9.000E+00
     -14     1     5     5     0     0 -9.189203142E+00  1.513169552E+02 -6.695972962E+01  1.657252780E+02  4.573661350E-06  0.00000E+00  9.000E+00
       5     1     4     4   511     0 -1.399317612E+01 -2.005885108E+01  1.540742932E+01  2.929364885E+01  4.750000000E+00  0.00000E+00  9.000E+00
      -5     1     3     3     0   502  1.082578709E+02  8.223979429E+01 -2.007637110E-01  1.360358525E+02  4.750000000E+00  0.00000E+00  9.000E+00
      21     1     1     2   512   501  2.841129540E+01  2.673546460E+01  4.160737173E+01  5.703648092E+01  1.168007728E-06  0.00000E+00  9.000E+00
      21     1     4     4   507   511 -8.400246707E+00 -1.315429660E+01  2.210011184E+01  2.705576847E+01  8.920806376E-07  0.00000E+00  9.000E+00
#rwgt            1          17  -22.854221172572085                1     6221318           0         110           0
<weights>
-.18220E+02
</weights>
</event>
<event>
     15  10001  1.35503E+01  1.43963E+01 -1.00000E+00  1.49767E-01
      21    -1     0     0   512   501  0.000000000E+00  0.000000000E+00  1.594041715E+03  1.594041715E+03  0.000000000E+00  0.00000E+00  9.000E+00
      21    -1     0     0   501   502  0.000000000E+00  0.000000000E+00 -1.797786737E+02  1.797786737E+02  0.000000000E+00  0.00000E+00  9.000E+00
      -6     2     1     2     0   502 -4.135199022E+01  8.711675498E+01  4.435713842E+02  4.856726647E+02  1.726935098E+02  0.00000E+00  9.000E+00
       6     2     1     2   507     0  3.921205356E+01 -7.288040459E+01  1.121088586E+03  1.137063345E+03  1.709511458E+02  0.00000E+00  9.000E+00
     -24     2     3     3     0     0 -3.549379417E+01  1.205209277E+02  3.693480629E+02  3.986233388E+02  8.183807910E+01  0.00000E+00  9.000E+00
      24     2     4     4     0     0  6.842037028E-01 -9.233508173E+01  1.017504563E+03  1.024667590E+03  7.811465585E+01  0.00000E+00  9.000E+00
     -11     1     6     6     0     0  3.264863034E+01 -2.332620925E+01  2.275658293E+02  2.310762900E+02  0.000000000E+00  0.00000E+00  9.000E+00
      12     1     6     6     0     0 -3.196442664E+01 -6.900887249E+01  7.899387332E+02  7.935912999E+02  0.000000000E+00  0.00000E+00  9.000E+00
      13     1     5     5     0     0 -5.357467141E+01  6.927916462E+01  1.606874700E+02  1.830035822E+02  0.000000000E+00  0.00000E+00  9.000E+00
     -14     1     5     5     0     0  1.808087724E+01  5.124176312E+01  2.086605929E+02  2.156197566E+02  4.672030912E-06  0.00000E+00  9.000E+00
       5     1     4     4   514     0  2.555220656E+01  1.373456727E+01  7.232626825E+01  7.807179501E+01  4.750000000E+00  0.00000E+00  9.000E+00
      -5     1     3     3     0   511  7.536437530E+00 -1.058895974E+01  8.597276290E+00  1.629109016E+01  4.750000000E+00  0.00000E+00  9.000E+00
      21     1     3     3   511   502 -1.339463358E+01 -2.281521302E+01  6.562604497E+01  7.075823579E+01  1.348699152E-06  0.00000E+00  9.000E+00
      21     1     1     2   512   507  2.139936659E+00 -1.423635039E+01 -1.503969295E+02  1.510843784E+02  4.264961200E-06  0.00000E+00  9.000E+00
      21     1     4     4   507   514  1.297564330E+01  5.720109867E+00  3.125775542E+01  3.432396029E+01  4.768371582E-07  0.00000E+00  9.000E+00
#rwgt            1          17   12.596767621592805                1     6229253           0      110110           0
<weights>
0.14003E+02
</weights>
</event>
<event>
     14  10001 -1.35503E+01  1.59948E+01 -1.00000E+00  7.44414E-01
      21    -1     0     0   512   501  0.000000000E+00  0.000000000E+00  1.051526482E+03  1.051526482E+03  0.000000000E+00  0.00000E+00  9.000E+00
      21    -1     0     0   501   502  0.000000000E+00  0.000000000E+00 -1.075148889E+02  1.075148889E+02  0.000000000E+00  0.00000E+00  9.000E+00
      -6     2     1     2     0   502  4.733786133E+01 -1.347643663E+02  5.780967733E+01  2.312618046E+02  1.724463856E+02  0.00000E+00  9.000E+00
       6     2     1     2   507     0 -4.891902870E+01  1.506808680E+02  6.467927705E+02  6.878367106E+02  1.722807510E+02  0.00000E+00  9.000E+00
     -24     2     3     3     0     0  8.779080447E+00 -1.566920490E+02  5.967812613E+01  1.866114244E+02  8.144246135E+01  0.00000E+00  9.000E+00
      24     2     4     4     0     0  1.836464788E+01  2.460236052E+01  2.299413047E+02  2.456170741E+02  8.069824689E+01  0.00000E+00  9.000E+00
     -11     1     6     6     0     0  7.191383379E+00 -2.204950748E+01  2.115805811E+01  3.139363308E+01  0.000000000E+00  0.00000E+00  9.000E+00
      12     1     6     6     0     0  1.117326450E+01  4.665186800E+01  2.087832466E+02  2.142234410E+02  4.672030912E-06  0.00000E+00  9.000E+00
      13     1     5     5     0     0 -2.297993857E+01 -1.254822779E+02  2.458295381E+01  1.299161317E+02  0.000000000E+00  0.00000E+00  9.000E+00
     -14     1     5     5     0     0  3.175901901E+01 -3.120977108E+01  3.509517232E+01  5.669529275E+01  4.768371582E-07  0.00000E+00  9.000E+00
       5     1     4     4   511     0 -6.553229307E+01  1.249977547E+02  3.813116791E+02  4.066203134E+02  4.750000000E+00  0.00000E+00  9.000E+00
      -5     1     3     3     0   502  3.855878088E+01  2.192768265E+01 -1.868448800E+00  4.465038018E+01  4.750000000E+00  0.00000E+00  9.000E+00
      21     1     1     2   512   507  1.581167370E+00 -1.591650163E+01  2.394091450E+02  2.399428553E+02  0.000000000E+00  0.00000E+00  9.000E+00
      21     1     4     4   507   511 -1.751383509E+00  1.080752752E+00  3.553978665E+01  3.559932311E+01  0.000000000E+00  0.00000E+00  9.000E+00
#rwgt            1          17  -19.540799291258143                1     6245439           0         110           0
<weights>
-.14102E+02
</weights>
</event>
<event>
     15  10001  1.35503E+01  3.30553E+01 -1.00000E+00  5.35667E-01
      21    -1     0     0   511   501  0.000000000E+00  0.000000000E+00  1.801294071E+02  1.801294071E+02  0.000000000E+00  0.00000E+00  9.000E+00
      21    -1     0     0   507   502  0.000000000E+00  0.000000000E+00 -8.031951134E+02  8.031951134E+02  0.000000000E+00  0.00000E+00  9.000E+00
      -6     2     1     2     0   501 -5.815957758E+01  1.183129991E+02 -8.995664527E+01  2.363314895E+02  1.742982292E+02  0.00000E+00  9.000E+00
       6     2     1     2   507     0  5.718471071E+01 -8.527203752E+01 -6.204734594E+02  6.535842861E+02  1.778867438E+02  0.00000E+00  9.000E+00
     -24     2     3     3     0     0  2.723086116E+01  3.692769645E+01 -7.271315965E+01  1.168668294E+02  7.915477036E+01  0.00000E+00  9.000E+00
      24     2     4     4     0     0  7.569385570E+01 -7.820108567E+01 -5.768301571E+02  5.925314394E+02  8.071869024E+01  0.00000E+00  9.000E+00
     -11     1     6     6     0     0  4.982984958E+00 -5.113581314E+01 -3.409045740E+02  3.447544489E+02  0.000000000E+00  0.00000E+00  9.000E+00
      12     1     6     6     0     0  7.071087075E+01 -2.706527254E+01 -2.359255831E+02  2.477769904E+02  3.814697266E-06  0.00000E+00  9.000E+00
      13     1     5     5     0     0  6.037880500E-01 -4.032184969E+00 -6.762587941E+01  6.774867262E+01  0.000000000E+00  0.00000E+00  9.000E+00
     -14     1     5     5     0     0  2.662707311E+01  4.095988142E+01 -5.087280240E+00  4.911815681E+01  1.177097419E-06  0.00000E+00  9.000E+00
       5     1     4     4   512     0 -2.792079283E+01  2.869322620E+00 -2.475054362E+01  3.772208364E+01  4.750000000E+00  0.00000E+00  9.000E+00
      -5     1     3     3     0   513 -8.270907359E+01  7.909592261E+01 -1.773315068E+01  1.159050601E+02  4.750000000E+00  0.00000E+00  9.000E+00
      21     1     1     2   511   502  9.748668694E-01 -3.304096154E+01  8.736439842E+01  9.340874486E+01  4.156969970E-06  0.00000E+00  9.000E+00
      21     1     4     4   507   512  9.411647838E+00 -9.940274470E+00 -1.889275877E+01  2.333076307E+01  3.371747881E-07  0.00000E+00  9.000E+00
      21     1     3     3   513   501 -2.681365158E+00  2.289379997E+00  4.896650638E-01  3.559599943E+00  1.095007245E-07  0.00000E+00  9.000E+00
#rwgt            1          17   17.359122779566714                1     6257113           0       11011           0
<weights>
0.17820E+02
</weights>
</event>
<event>
     14  10001  1.35503E+01  6.19238E+00 -1.00000E+00  2.06541E-01
      21    -1     0     0   502   511  0.000000000E+00  0.000000000E+00  1.398246672E+02  1.398246672E+02  0.000000000E+00  0.00000E+00  9.000E+00
      21    -1     0     0   507   502  0.000000000E+00  0.000000000E+00 -8.090464941E+02  8.090464941E+02  0.000000000E+00  0.00000E+00  9.000E+00
      -6     2     1     2     0   501  1.933992529E+00  4.058591003E+01 -7.163112414E+01  1.915977850E+02  1.729963492E+02  0.00000E+00  9.000E+00
       6     2     1     2   507     0 -6.290680127E+00 -4.498646734E+01 -6.655384319E+02  6.890440606E+02  1.725600135E+02  0.00000E+00  9.000E+00
     -24     2     3     3     0     0  3.911728263E+01  2.577799707E+01  1.489809727E+01  9.240147696E+01  7.823945749E+01  0.00000E+00  9.000E+00
      24     2     4     4     0     0  3.325927833E+01  1.796999604E+01 -2.217866520E+02  2.390819287E+02  8.088108112E+01  0.00000E+00  9.000E+00
     -11     1     6     6     0     0 -3.128893904E+00  2.907616589E+01 -1.808368987E+02  1.831862367E+02  0.000000000E+00  0.00000E+00  9.000E+00
      12     1     6     6     0     0  3.638817223E+01 -1.110616985E+01 -4.094975331E+01  5.589569199E+01  6.743495762E-07  0.00000E+00  9.000E+00
      13     1     5     5     0     0 -7.994560963E+00  3.722368161E+01  2.109297698E+01  4.352504055E+01  0.000000000E+00  0.00000E+00  9.000E+00
     -14     1     5     5     0     0  4.711184359E+01 -1.144568454E+01 -6.194879707E+00  4.887643641E+01  2.617180157E-06  0.00000E+00  9.000E+00
       5     1     4     4   507     0 -3.954995845E+01 -6.295646338E+01 -4.437517799E+02  4.499621319E+02  4.750000000E+00  0.00000E+00  9.000E+00
      -5     1     3     3     0   512 -4.136257793E+01  1.196558243E+01 -7.953257940E+01  9.056506888E+01  4.750000000E+00  0.00000E+00  9.000E+00
      21     1     3     3   512   501  4.179287829E+00  2.842330539E+00 -6.996642008E+00  8.631239137E+00  8.429369702E-08  0.00000E+00  9.000E+00
      21     1     1     2   501   511  4.356687598E+00  4.400557309E+00  6.794772912E+01  6.822931572E+01  9.536743164E-07  0.00000E+00  9.000E+00
#rwgt            1          17   19.124602690233640                1     6262642           0        1101           0
<weights>
0.16560E+02
</weights>
</event>
<event>
     15  10001  1.35503E+01  1.74174E+01 -1.00000E+00  3.30150E-01
      21    -1     0     0   507   511  0.000000000E+00  0.000000000E+00  5.344965702E+02  5.344965702E+02  0.000000000E+00  0.00000E+00  9.000E+00
      21    -1     0     0   501   502  0.000000000E+00  0.000000000E+00 -1.273573042E+02  1.273573042E+02  0.000000000E+00  0.00000E+00  9.000E+00
      -6     2     1     2     0   502  8.140141738E+01 -6.665174231E+01  7.530648141E+00  2.034495876E+02  1.739723499E+02  0.00000E+00  9.000E+00
       6     2     1     2   507     0 -6.982837491E+01  7.966824638E+01  3.304274779E+02  3.870642923E+02  1.715034018E+02  0.00000E+00  9.000E+00
     -24     2     3     3     0     0  5.932702082E+01 -1.099184363E+01  6.430758837E+01  1.197235404E+02  8.097989990E+01  0.00000E+00  9.000E+00
      24     2     4     4     0     0 -1.128382452E+02  6.390076815E+01  2.266789815E+02  2.733449375E+02  8.073609165E+01  0.00000E+00  9.000E+00
     -11     1     6     6     0     0 -9.209413110E+01  8.181640595E+01  1.655690895E+02  2.063695149E+02  0.000000000E+00  0.00000E+00  9.000E+00
      12     1     6     6     0     0 -2.074411406E+01 -1.791563780E+01  6.110989194E+01  6.697542265E+01  1.168007728E-06  0.00000E+00  9.000E+00
      13     1     5     5     0     0  1.300459392E+01  3.303112616E+01  1.312008409E+01  3.784588967E+01  0.000000000E+00  0.00000E+00  9.000E+00
     -14     1     5     5     0     0  4.632242690E+01 -4.402296978E+01  5.118750428E+01  8.187765078E+01  1.784161275E-06  0.00000E+00  9.000E+00
       5     1     4     4   512     0  1.648457352E+01  4.452554953E+00  3.877350542E+01  4.263230738E+01  4.750000000E+00  0.00000E+00  9.000E+00
      -5     1     3     3     0   514  1.922788908E+01 -5.478559605E+01 -5.558142147E+01  8.051726626E+01  4.750000000E+00  0.00000E+00  9.000E+00
      21     1     1     2   501   511 -1.157304247E+01 -1.301650407E+01  6.918113989E+01  7.133999444E+01  1.651812370E-06  0.00000E+00  9.000E+00
      21     1     4     4   507   512  2.652529673E+01  1.131492328E+01  6.497499102E+01  7.108704743E+01  1.907348633E-06  0.00000E+00  9.000E+00
      21     1     3     3   514   502  2.846507472E+00 -8.743026329E-01 -1.195518767E+00  3.208780922E+00  8.024520885E-08  0.00000E+00  9.000E+00
#rwgt            1          17   40.430495965461887                1     6276817           0       11011           0
<weights>
0.13161E+02
</weights>
</event>
<event>
     14  10001  1.35503E+01  4.29177E+00 -1.00000E+00  3.15083E-01
      21    -1     0     0   512   501  0.000000000E+00  0.000000000E+00  5.929144657E+01  5.929144657E+01  0.000000000E+00  0.00000E+00  9.000E+00
      21    -1     0     0   501   502  0.000000000E+00  0.000000000E+00 -1.810577007E+03  1.810577007E+03  0.000000000E+00  0.00000E+00  9.000E+00
      -6     2     1     2     0   502  1.384596316E+01 -5.845648163E+01 -1.389245820E+03  1.400746380E+03  1.687530793E+02  0.00000E+00  9.000E+00
       6     2     1     2   507     0 -1.294875779E+01  5.425953872E+01 -9.850010704E+01  2.055474965E+02  1.715684539E+02  0.00000E+00  9.000E+00
     -24     2     3     3     0     0  4.537195335E+01 -6.495210198E+01 -1.301501893E+03  1.306570951E+03  8.332515229E+01  0.00000E+00  9.000E+00
      24     2     4     4     0     0 -4.451052252E+01  6.555156959E+01 -1.202901495E+02  1.652855616E+02  8.106418396E+01  0.00000E+00  9.000E+00
     -11     1     6     6     0     0 -4.737818726E+00 -1.310187224E+01 -5.186862889E+01  5.370717499E+01  0.000000000E+00  0.00000E+00  9.000E+00
      12     1     6     6     0     0 -3.977270379E+01  7.865344183E+01 -6.842152057E+01  1.115783866E+02  1.348699152E-06  0.00000E+00  9.000E+00
      13     1     5     5     0     0  3.197036043E+01 -8.269052655E+01 -8.722992612E+02  8.767929221E+02  0.000000000E+00  0.00000E+00  9.000E+00
     -14     1     5     5     0     0  1.340159292E+01  1.773842457E+01 -4.292026320E+02  4.297780284E+02  0.000000000E+00  0.00000E+00  9.000E+00
       5     1     4     4   507     0  3.156176473E+01 -1.129203087E+01  2.179004242E+01  4.026193491E+01  4.750000000E+00  0.00000E+00  9.000E+00
      -5     1     3     3     0   511 -2.890183597E+01  5.239328863E+00 -6.808978560E+01  7.430712007E+01  4.750000000E+00  0.00000E+00  9.000E+00
      21     1     1     2   512   507 -8.972053677E-01  4.196942909E+00 -2.635396341E+02  2.635745778E+02  0.000000000E+00  0.00000E+00  9.000E+00
      21     1     3     3   511   502 -2.624154226E+00  1.256291488E+00 -1.965414090E+01  1.986830915E+01  3.371747881E-07  0.00000E+00  9.000E+00
#rwgt            1          17   35.119870129946818                1     6287251           0         111           0
<weights>
0.13153E+02
</weights>
</event>
<event>
     15  10001  1.35503E+01  8.05393E+01 -1.00000E+00  1.81513E-01
      -3    -1     0     0     0   501  0.000000000E+00  0.000000000E+00  1.417649602E+02  1.417649602E+02  0.000000000E+00  0.00000E+00  9.000E+00
      21    -1     0     0   501   502  0.000000000E+00  0.000000000E+00 -2.156538576E+03  2.156538576E+03  0.000000000E+00  0.00000E+00  9.000E+00
      -6     2     1     2     0   502  7.336380780E+01  2.104358878E+01 -8.523122999E+02  8.728366934E+02  1.719958016E+02  0.00000E+00  9.000E+00
       6     2     1     2   507     0 -1.535327236E+02 -2.875848556E+01 -1.269800115E+03  1.291272237E+03  1.749065808E+02  0.00000E+00  9.000E+00
     -24     2     3     3     0     0  7.544524400E+01  1.894103090E+01 -3.058691639E+02  3.262316404E+02  8.258565424E+01  0.00000E+00  9.000E+00
      24     2     4     4     0     0 -9.894151476E+01  5.165407535E+01 -7.205103613E+02  7.332373899E+02  7.774523990E+01  0.00000E+00  9.000E+00
     -11     1     6     6     0     0 -3.788014592E+01 -9.442400792E+00 -3.776913084E+02  3.797035539E+02  0.000000000E+00  0.00000E+00  9.000E+00
      12     1     6     6     0     0 -6.106136884E+01  6.109647614E+01 -3.428190528E+02  3.535338359E+02  1.078959322E-05  0.00000E+00  9.000E+00
      13     1     5     5     0     0 -9.843406716E+00  1.437002086E+01 -1.469465795E+01  2.278866226E+01  0.000000000E+00  0.00000E+00  9.000E+00
     -14     1     5     5     0     0  8.528865072E+01  4.571010037E+00 -2.911745059E+02  3.034429781E+02  6.607249480E-06  0.00000E+00  9.000E+00
       5     1     4     4   511     0 -5.485728550E+01 -7.826975010E+01 -5.251111492E+02  5.337600182E+02  4.750000000E+00  0.00000E+00  9.000E+00
      -5     1     3     3     0   512 -1.155603009E+00 -4.410521579E+00 -2.336738677E+02  2.337666081E+02  4.750000000E+00  0.00000E+00  9.000E+00
      -3     1     1     2     0   507  8.016891581E+01  7.714896785E+00  1.073387982E+02  1.341946060E+02  0.000000000E+00  0.00000E+00  9.000E+00
      21     1     3     3   512   502 -9.258331928E-01  6.513079461E+00 -3.127692684E+02  3.128384449E+02  6.607249480E-06  0.00000E+00  9.000E+00
      21     1     4     4   507   511  2.660766464E-01 -2.142810816E+00 -2.417860409E+01  2.427482916E+01  4.768371582E-07  0.00000E+00  9.000E+00
#rwgt            1          17   124.07803537113337                1     6298790           0       11110           0
<weights>
0.13181E+02
</weights>
</event>
<event>
     14  10001  1.35503E+01  3.58422E+01 -1.00000E+00  2.28354E-01
       2    -1     0     0   502     0  0.000000000E+00  0.000000000E+00  2.173389655E+03  2.173389655E+03  0.000000000E+00  0.00000E+00  9.000E+00
      21    -1     0     0   507   502  0.000000000E+00  0.000000000E+00 -2.339559645E+02  2.339559645E+02  0.000000000E+00  0.00000E+00  9.000E+00
      -6     2     1     2     0   501 -5.313121963E+01 -6.725553038E+01  3.500492494E+00  1.938836836E+02  1.738746573E+02  0.00000E+00  9.000E+00
       6     2     1     2   507     0  7.730268208E+01  9.372073497E+01 -5.835229311E+01  2.188543838E+02  1.724325097E+02  0.00000E+00  9.000E+00
     -24     2     3     3     0     0  2.836480398E+01 -6.780794200E+01 -6.959866225E+00  1.069769894E+02  7.741548565E+01  0.00000E+00  9.000E+00
      24     2     4     4     0     0  1.136255528E+02  9.646063548E+01 -3.572130812E+01  1.757083298E+02  8.591847810E+01  0.00000E+00  9.000E+00
     -11     1     6     6     0     0  1.918669407E+01  6.643788532E+01 -3.287932591E+01  7.657135174E+01  0.000000000E+00  0.00000E+00  9.000E+00
      12     1     6     6     0     0  9.443885872E+01  3.002275015E+01 -2.841982205E+00  9.913697810E+01  2.664600962E-06  0.00000E+00  9.000E+00
      13     1     5     5     0     0  1.856674389E+01  1.450638067E+01  1.741831133E+00  2.362610917E+01  0.000000000E+00  0.00000E+00  9.000E+00
     -14     1     5     5     0     0  9.798060093E+00 -8.231432267E+01 -8.701697358E+00  8.335088023E+01  1.004475328E-06  0.00000E+00  9.000E+00
       5     1     4     4   507     0 -3.632287072E+01 -2.739900511E+00 -2.263098500E+01  4.314605398E+01  4.750000000E+00  0.00000E+00  9.000E+00
      -5     1     3     3     0   511 -8.264852393E+01  3.225908977E+00  1.183209538E+01  8.368838616E+01  4.750000000E+00  0.00000E+00  9.000E+00
       2     1     1     2   501     0 -2.417146245E+01 -2.646520459E+01  1.994285491E+03  1.994607552E+03  0.000000000E+00  0.00000E+00  9.000E+00
      21     1     3     3   511   501  1.152500321E+00 -2.673497352E+00 -1.371736656E+00  3.218308024E+00  9.771344847E-08  0.00000E+00  9.000E+00
#rwgt            1          17   59.022354660546689                1     6303452           0         111           0
<weights>
0.14328E+02
</weights>
</event>
<event>
     15  10001  1.35503E+01  3.01269E+01 -1.00000E+00  2.36664E-01
      21    -1     0     0   502   511  0.000000000E+00  0.000000000E+00  4.372920884E+02  4.372920884E+02  0.000000000E+00  0.00000E+00  9.000E+00
      21    -1     0     0   507   502  0.000000000E+00  0.000000000E+00 -2.824742613E+02  2.824742613E+02  0.000000000E+00  0.00000E+00  9.000E+00
      -6     2     1     2     0   501 -1.247115874E+01  1.518836183E+02  3.284256393E+02  4.007905749E+02  1.718881063E+02  0.00000E+00  9.000E+00
       6     2     1     2   507     0  1.749076854E+01 -1.221778505E+02 -1.900842079E+02  2.846377385E+02  1.722012831E+02  0.00000E+00  9.000E+00
     -24     2     3     3     0     0  4.412265681E+01  3.841912875E+01  1.714507833E+02  1.982265854E+02  8.047092485E+01  0.00000E+00  9.000E+00
      24     2     4     4     0     0  4.651703468E+01 -4.223164881E+01 -3.982836017E+01  1.113067681E+02  8.279825886E+01  0.00000E+00  9.000E+00
     -11     1     6     6     0     0  2.312980593E+01 -2.534241004E+01  2.358832586E+01  4.163694016E+01  0.000000000E+00  0.00000E+00  9.000E+00
      12     1     6     6     0     0  2.338722875E+01 -1.688923877E+01 -6.341668604E+01  6.966982792E+01  2.023048729E-06  0.00000E+00  9.000E+00
      13     1     5     5     0     0  1.939964387E+01  6.172906550E+01  1.000115653E+02  1.191181636E+02  0.000000000E+00  0.00000E+00  9.000E+00
     -14     1     5     5     0     0  2.472301294E+01 -2.330993675E+01  7.143921801E+01  7.910842174E+01  2.861022949E-06  0.00000E+00  9.000E+00
       5     1     4     4   513     0 -2.433553912E+01 -7.527059906E+01 -1.431118707E+02  1.635892771E+02  4.750000000E+00  0.00000E+00  9.000E+00
      -5     1     3     3     0   512 -5.069459385E+01  1.098316228E+02  1.472925454E+02  1.906582902E+02  4.750000000E+00  0.00000E+00  9.000E+00
      21     1     1     2   501   511 -5.019609802E+00 -2.970576782E+01  1.647639578E+01  3.433803638E+01  6.307962682E-07  0.00000E+00  9.000E+00
      21     1     3     3   512   501 -5.899221697E+00  3.632866762E+00  9.682310555E+00  1.190569927E+01  3.371747881E-07  0.00000E+00  9.000E+00
      21     1     4     4   507   513 -4.690727019E+00 -4.675602625E+00 -7.143977100E+00  9.741693317E+00  2.064765462E-07  0.00000E+00  9.000E+00
#rwgt            1          17   2.4061718148200639                1     6317125           0       11110           0
<weights>
0.35120E+02
</weights>
</event>
<event>
     15  10001  1.35503E+01  2.19398E+01 -1.00000E+00  3.74093E-01
      21    -1     0     0   507   501  0.000000000E+00  0.000000000E+00  2.808368287E+02  2.808368287E+02  0.000000000E+00  0.00000E+00  9.000E+00
      21    -1     0     0   512   502  0.000000000E+00  0.000000000E+00 -1.895837290E+02  1.895837290E+02  0.000000000E+00  0.00000E+00  9.000E+00
      -6     2     1     2     0   502  2.393174013E+01 -2.456217303E+01 -1.875331197E+01  1.772515162E+02  1.728883592E+02  0.00000E+00  9.000E+00
       6     2     1     2   507     0 -2.682571708E+01  2.814047004E+00 -5.763262953E+00  1.753387668E+02  1.731557968E+02  0.00000E+00  9.000E+00
     -24     2     3     3     0     0  1.301606542E+01 -6.058873556E+01 -6.086313562E+01  1.184823594E+02  8.058123459E+01  0.00000E+00  9.000E+00
      24     2     4     4     0     0 -3.140776764E+01  1.552967315E+01 -6.018367236E+01  1.079888205E+02  8.253418884E+01  0.00000E+00  9.000E+00
     -11     1     6     6     0     0 -9.960855273E+00  4.327496184E+01 -5.773230125E+01  7.283515338E+01  0.000000000E+00  0.00000E+00  9.000E+00
      12     1     6     6     0     0 -2.144691237E+01 -2.774528869E+01 -2.451371110E+00  3.515366717E+01  1.562562791E-06  0.00000E+00  9.000E+00
      13     1     5     5     0     0 -2.495358597E+01  3.651886798E+00 -2.564035973E+01  3.596450718E+01  0.000000000E+00  0.00000E+00  9.000E+00
     -14     1     5     5     0     0  3.796965139E+01 -6.424062235E+01 -3.522277590E+01  8.251785218E+01  1.907348633E-06  0.00000E+00  9.000E+00
       5     1     4     4   511     0 -3.573086454E+00 -1.126237667E+01  5.720926172E+01  5.860947194E+01  4.750000000E+00  0.00000E+00  9.000E+00
      -5     1     3     3     0   514  1.019788047E+01  3.653419197E+01  4.298816494E+01  5.752641806E+01  4.750000000E+00  0.00000E+00  9.000E+00
      21     1     1     2   512   501  2.893976955E+00  2.174812603E+01  1.157696746E+02  1.178302747E+02  3.015782986E-06  0.00000E+00  9.000E+00
      21     1     4     4   507   511  8.155137015E+00 -1.453249473E+00 -2.788852312E+00  8.740474300E+00  2.935188354E-07  0.00000E+00  9.000E+00
      21     1     3     3   514   502  7.177942406E-01 -5.076294507E-01 -8.783412869E-01  1.242738769E+00  1.825012075E-08  0.00000E+00  9.000E+00
#rwgt            1          17   90.512636605168609                1     6326457           0       11011           0
<weights>
0.13083E+02
</weights>
</event>
<event>
     14  10001  1.35503E+01  8.37624E+01 -1.00000E+00  7.43204E-01
      21    -1     0     0   511   501  0.000000000E+00  0.000000000E+00  4.475619292E+02  4.475619292E+02  0.000000000E+00  0.00000E+00  9.000E+00
      21    -1     0     0   507   502  0.000000000E+00  0.000000000E+00 -1.681141184E+02  1.681141184E+02  0.000000000E+00  0.00000E+00  9.000E+00
      -6     2     1     2     0   501  2.679133895E+01  1.711081901E+01  1.900549797E+02  2.584187351E+02  1.721882439E+02  0.00000E+00  9.000E+00
       6     2     1     2   507     0  4.040779778E+01  3.289332633E+01  1.635300766E+02  2.453981614E+02  1.753950131E+02  0.00000E+00  9.000E+00
     -24     2     3     3     0     0 -2.744088166E+01 -1.636040851E+00  1.815223567E+02  2.002126644E+02  7.986905789E+01  0.00000E+00  9.000E+00
      24     2     4     4     0     0  4.159769970E+01  7.235423336E+01  5.149523652E+01  1.254983281E+02  7.831070974E+01  0.00000E+00  9.000E+00
     -11     1     6     6     0     0 -6.222648808E-01  2.244579126E+00  4.317284433E+01  4.323563156E+01  0.000000000E+00  0.00000E+00  9.000E+00
      12     1     6     6     0     0  4.221996458E+01  7.010965423E+01  8.322392194E+00  8.226269651E+01  1.343420466E-06  0.00000E+00  9.000E+00
      13     1     5     5     0     0 -8.015771739E+00  3.778503744E+01  1.062115631E+02  1.130170685E+02  0.000000000E+00  0.00000E+00  9.000E+00
     -14     1     5     5     0     0 -1.942510992E+01 -3.942107829E+01  7.531079359E+01  8.719559587E+01  9.536743164E-07  0.00000E+00  9.000E+00
       5     1     4     4   512     0  4.010183937E-01 -4.051509489E+01  1.074654668E+02  1.149479133E+02  4.750000000E+00  0.00000E+00  9.000E+00
      -5     1     3     3     0   501  5.423222061E+01  1.874685986E+01  8.532623067E+00  5.820607067E+01  4.750000000E+00  0.00000E+00  9.000E+00
      21     1     1     2   511   502 -6.719913673E+01 -5.000414534E+01 -7.413724549E+01  1.118591512E+02  3.303624740E-06  0.00000E+00  9.000E+00
      21     1     4     4   507   512 -1.590920306E+00  1.054187854E+00  4.569373289E+00  4.951920002E+00  8.429369702E-08  0.00000E+00  9.000E+00
#rwgt            1          17   18.140783028636680                1     6331319           0         110           0
<weights>
0.14425E+02
</weights>
</event>
<event>
     15  10001  1.35503E+01  4.14124E+01 -1.00000E+00  5.32571E-01
      21    -1     0     0   502   512  0.000000000E+00  0.000000000E+00  6.016304573E+01  6.016304573E+01  0.000000000E+00  0.00000E+00  9.000E+00
      21    -1     0     0   507   502  0.000000000E+00  0.000000000E+00 -1.165458808E+03  1.165458808E+03  0.000000000E+00  0.00000E+00  9.000E+00
      -6     2     1     2     0   501  1.277467944E+02  1.050815847E+02 -5.369603225E+02  5.899298416E+02  1.798039132E+02  0.00000E+00  9.000E+00
       6     2     1     2   507     0 -8.644069139E+01 -1.080467971E+02 -5.453883026E+02  5.883469200E+02  1.719232218E+02  0.00000E+00  9.000E+00
     -24     2     3     3     0     0  3.843442806E+00  5.647439191E+01 -3.220993494E+02  3.370192394E+02  8.142387785E+01  0.00000E+00  9.000E+00
      24     2     4     4     0     0 -7.701630629E+01 -1.407117053E+02 -3.910023771E+02  4.301125533E+02  7.989151509E+01  0.00000E+00  9.000E+00
     -11     1     6     6     0     0 -5.478869697E+01 -2.346762370E+01 -1.415233158E+02  1.535622987E+02  0.000000000E+00  0.00000E+00  9.000E+00
      12     1     6     6     0     0 -2.222760932E+01 -1.172440816E+02 -2.494790613E+02  2.765502546E+02  3.814697266E-06  0.00000E+00  9.000E+00
      13     1     5     5     0     0  4.233450701E+01  2.470200488E+01 -1.713564710E+02  1.782286163E+02  0.000000000E+00  0.00000E+00  9.000E+00
     -14     1     5     5     0     0 -3.849106420E+01  3.177238703E+01 -1.507428784E+02  1.587906231E+02  1.907348633E-06  0.00000E+00  9.000E+00
       5     1     4     4   513     0 -9.593801951E+00  3.195454254E+01 -1.470501979E+02  1.508623777E+02  4.750000000E+00  0.00000E+00  9.000E+00
      -5     1     3     3     0   511  1.218512691E+02  4.875921724E+01 -2.120878532E+02  2.494574373E+02  4.750000000E+00  0.00000E+00  9.000E+00
      21     1     1     2   501   512 -4.130610298E+01  2.965212358E+00 -2.294713696E+01  4.734509185E+01  1.390207266E-06  0.00000E+00  9.000E+00
      21     1     3     3   511   501  2.052082503E+00 -1.520244319E-01 -2.773119934E+00  3.453164953E+00  5.161913656E-08  0.00000E+00  9.000E+00
      21     1     4     4   507   513  1.694168521E-01  7.103656414E-01 -7.335727626E+00  7.371988959E+00  0.000000000E+00  0.00000E+00  9.000E+00
#rwgt            1          17   13.999932871768536                1     6339216           0       11110           0
<weights>
0.99227E+01
</weights>
</event>
<event>
     15  10001  1.35503E+01  2.43912E+02 -1.00000E+00  4.81103E-01
      21    -1     0     0   507   501  0.000000000E+00  0.000000000E+00  1.261599430E+03  1.261599430E+03  0.000000000E+00  0.00000E+00  9.000E+00
       2    -1     0     0   501     0  0.000000000E+00  0.000000000E+00 -1.240036184E+03  1.240036184E+03  0.000000000E+00  0.00000E+00  9.000E+00
      -6     2     1     2     0   502  1.220258551E+02  6.499850317E+01  8.842989825E+02  9.114259857E+02  1.720393044E+02  0.00000E+00  9.000E+00
       6     2     1     2   507     0  1.204824307E+02 -3.886651646E+01  3.185592792E+02  3.839961056E+02  1.730502024E+02  0.00000E+00  9.000E+00
     -24     2     3     3     0     0  2.357081454E+01  8.468177347E+01  5.191898310E+02  5.326570353E+02  8.024244866E+01  0.00000E+00  9.000E+00
      24     2     4     4     0     0  5.568204041E+01  2.682686237E+01  2.419667088E+02  2.624800694E+02  8.079435950E+01  0.00000E+00  9.000E+00
     -11     1     6     6     0     0  2.997455185E+01  4.920045620E+01  2.015003770E+02  2.095747136E+02  0.000000000E+00  0.00000E+00  9.000E+00
      12     1     6     6     0     0  2.570748856E+01 -2.237359383E+01  4.046633177E+01  5.290535584E+01  0.000000000E+00  0.00000E+00  9.000E+00
      13     1     5     5     0     0  5.126216242E+01  5.816695126E+01  4.002753723E+02  4.077150686E+02  0.000000000E+00  0.00000E+00  9.000E+00
     -14     1     5     5     0     0 -2.769134788E+01  2.651482221E+01  1.189144587E+02  1.249419666E+02  1.907348633E-06  0.00000E+00  9.000E+00
       5     1     4     4   512     0  6.207938146E+01 -6.635466731E+01  7.156902684E+01  1.157647597E+02  4.750000000E+00  0.00000E+00  9.000E+00
      -5     1     3     3     0   511  9.508001362E+01 -1.965284329E+01  3.475208707E+02  3.608597530E+02  4.750000000E+00  0.00000E+00  9.000E+00
       2     1     1     2   502     0 -2.425082858E+02 -2.613198671E+01 -1.181295016E+03  1.206213523E+03  0.000000000E+00  0.00000E+00  9.000E+00
      21     1     4     4   507   512  2.721008783E+00  6.612884829E-01  5.023543565E+00  5.751276485E+00  8.429369702E-08  0.00000E+00  9.000E+00
      21     1     3     3   511   502  3.375026950E+00 -3.042701087E-02  1.758828076E+01  1.790919744E+01  4.129530925E-07  0.00000E+00  9.000E+00
#rwgt            1          17   1.8369919559098380                1     6352251           0       11011           0
<weights>
0.13950E+02
</weights>
</event>
<event>
     15  10001  1.35503E+01  2.88624E+01 -1.00000E+00  5.48351E-01
      21    -1     0     0   511   501  0.000000000E+00  0.000000000E+00  1.680031386E+03  1.680031386E+03  0.000000000E+00  0.00000E+00  9.000E+00
      21    -1     0     0   507   502  0.000000000E+00  0.000000000E+00 -2.961547175E+01  2.961547175E+01  0.000000000E+00  0.00000E+00  9.000E+00
      -6     2     1     2     0   501  2.641983658E+01 -1.126254664E+01  1.171917149E+03  1.185280868E+03  1.751458777E+02  0.00000E+00  9.000E+00
       6     2     1     2   507     0  1.971364919E+00  1.645636665E+01  4.709350427E+02  4.945289995E+02  1.500147279E+02  0.00000E+00  9.000E+00
     -24     2     3     3     0     0 -1.245302064E+01 -6.307468183E+01  5.057350878E+02  5.159282547E+02  7.924955333E+01  0.00000E+00  9.000E+00
      24     2     4     4     0     0 -3.167442295E+01  2.338447545E+01  2.206507263E+02  2.381978490E+02  8.063107026E+01  0.00000E+00  9.000E+00
     -11     1     6     6     0     0 -3.506797753E+01  5.062121163E+01  1.657096319E+02  1.767822169E+02  0.000000000E+00  0.00000E+00  9.000E+00
      12     1     6     6     0     0  3.393554576E+00 -2.723673618E+01  5.494109445E+01  6.141563213E+01  1.348699152E-06  0.00000E+00  9.000E+00
      13     1     5     5     0     0 -2.582376299E+01 -3.942267326E+01  4.622967051E+02  4.646926483E+02  0.000000000E+00  0.00000E+00  9.000E+00
     -14     1     5     5     0     0  1.337074235E+01 -2.365200857E+01  4.343838276E+01  5.123560634E+01  1.581489940E-06  0.00000E+00  9.000E+00
       5     1     4     4   513     0  3.646731088E+01 -9.817722643E-01  2.453817143E+02  2.481241158E+02  4.750000000E+00  0.00000E+00  9.000E+00
      -5     1     3     3     0   512  3.536760386E+01  4.839604154E+01  6.088510198E+02  6.118130197E+02  4.750000000E+00  0.00000E+00  9.000E+00
      21     1     1     2   511   502 -2.839120150E+01 -5.193820010E+00  7.563722095E+00  2.983699015E+01  2.246075115E-06  0.00000E+00  9.000E+00
      21     1     4     4   507   513 -2.821523012E+00 -5.946336533E+00  4.902602128E+00  8.207034659E+00  2.598106231E-07  0.00000E+00  9.000E+00
      21     1     3     3   512   501  3.505253366E+00  3.416093643E+00  5.733104141E+01  5.753959337E+01  9.536743164E-07  0.00000E+00  9.000E+00
#rwgt            1          17   14.224814765398101                1     6363070           0       11011           0
<weights>
0.12044E+02
</weights>
</event>
<event>
     15  10001  1.35503E+01  1.56063E+01 -1.00000E+00  1.63086E-01
      21    -1     0     0   511   501  0.000000000E+00  0.000000000E+00  1.245205777E+02  1.245205777E+02  0.000000000E+00  0.00000E+00  9.000E+00
      21    -1     0     0   501   502  0.000000000E+00  0.000000000E+00 -3.127333507E+02  3.127333507E+02  0.000000000E+00  0.00000E+00  9.000E+00
      -6     2     1     2     0   502  8.747717984E+00  4.633999151E+01 -1.566955769E+02  2.378643062E+02  1.726325779E+02  0.00000E+00  9.000E+00
       6     2     1     2   507     0 -2.096896169E+01 -5.604551149E+01 -3.136320342E+01  1.837825844E+02  1.709139874E+02  0.00000E+00  9.000E+00
     -24     2     3     3     0     0 -2.930662801E+01 -2.847984865E+01 -9.694298104E+01  1.319212248E+02  7.959452092E+01  0.00000E+00  9.000E+00
      24     2     4     4     0     0 -8.566832608E+00 -3.808813314E+01  4.638234063E+01  1.008739006E+02  8.062335763E+01  0.00000E+00  9.000E+00
     -11     1     6     6     0     0  3.405564922E+01 -2.197383964E+01  8.034810913E+00  4.131821703E+01  0.000000000E+00  0.00000E+00  9.000E+00
      12     1     6     6     0     0 -4.262248182E+01 -1.611429350E+01  3.834752972E+01  5.955568358E+01  1.348699152E-06  0.00000E+00  9.000E+00
      13     1     5     5     0     0  2.598980086E+01 -2.150831815E+01 -3.606728630E+01  4.938549017E+01  0.000000000E+00  0.00000E+00  9.000E+00
     -14     1     5     5     0     0 -5.529642887E+01 -6.971530498E+00 -6.087569474E+01  8.253573464E+01  0.000000000E+00  0.00000E+00  9.000E+00
       5     1     4     4   513     0 -1.597666382E+01 -1.829655859E+01 -6.197176303E+01  6.673140007E+01  4.750000000E+00  0.00000E+00  9.000E+00
      -5     1     3     3     0   512  3.084920206E+01  3.583134888E+01 -3.703661726E+01  6.024809000E+01  4.750000000E+00  0.00000E+00  9.000E+00
      21     1     3     3   512   502  7.205143928E+00  3.898849128E+01 -2.271597863E+01  4.569499137E+01  1.215700987E-06  0.00000E+00  9.000E+00
      21     1     1     2   511   507  1.222124370E+01  9.705519978E+00 -1.539926119E-01  1.560703782E+01  2.424660360E-07  0.00000E+00  9.000E+00
      21     1     4     4   507   513  3.574534738E+00  3.391802417E-01 -1.577378102E+01  1.617728375E+01  2.384185791E-07  0.00000E+00  9.000E+00
#rwgt            1          17   25.698846217595289                1     6369340           0      110110           0
<weights>
0.25736E+02
</weights>
</event>
<event>
     15  10001  1.35503E+01  3.64762E+00 -1.00000E+00  4.25572E-01
      21    -1     0     0   502   511  0.000000000E+00  0.000000000E+00  4.377118176E+02  4.377118176E+02  0.000000000E+00  0.00000E+00  9.000E+00
      21    -1     0     0   507   502  0.000000000E+00  0.000000000E+00 -1.675446288E+02  1.675446288E+02  0.000000000E+00  0.00000E+00  9.000E+00
      -6     2     1     2     0   501 -1.486219577E+02  6.643629056E+01  2.757498116E+02  3.643734481E+02  1.738613932E+02  0.00000E+00  9.000E+00
       6     2     1     2   507     0  1.462212953E+02 -6.918255227E+01 -6.239016325E+00  2.371767893E+02  1.733407376E+02  0.00000E+00  9.000E+00
     -24     2     3     3     0     0 -1.614409880E+02  1.217154515E+01  2.192256997E+02  2.847505185E+02  8.253248589E+01  0.00000E+00  9.000E+00
      24     2     4     4     0     0  1.732971391E+02 -6.982603567E+01 -2.501566652E+01  2.032170204E+02  7.591969529E+01  0.00000E+00  9.000E+00
     -11     1     6     6     0     0  4.980518641E+01 -2.307123141E+01 -4.329781922E+01  6.991093950E+01  0.000000000E+00  0.00000E+00  9.000E+00
      12     1     6     6     0     0  1.234919527E+02 -4.675480426E+01  1.828215270E+01  1.333060809E+02  2.644189955E-06  0.00000E+00  9.000E+00
      13     1     5     5     0     0 -1.487053172E+01  2.799239628E+01  5.932295376E+01  6.726009074E+01  0.000000000E+00  0.00000E+00  9.000E+00
     -14     1     5     5     0     0 -1.465704563E+02 -1.582085113E+01  1.599027459E+02  2.174904277E+02  4.264961200E-06  0.00000E+00  9.000E+00
       5     1     4     4   514     0 -2.680440620E+01  1.528496443E+00  1.755754635E+01  3.242903678E+01  4.750000000E+00  0.00000E+00  9.000E+00
      -5     1     3     3     0   512  1.175437415E+01  4.496299432E+01  4.700726444E+01  6.627278159E+01  4.750000000E+00  0.00000E+00  9.000E+00
      21     1     1     2   501   511  2.400662403E+00  2.746261717E+00  6.563935016E-01  3.706209090E+00  1.074538015E-07  0.00000E+00  9.000E+00
      21     1     3     3   512   501  1.064656187E+00  9.301751096E+00  9.516847461E+00  1.335014801E+01  2.920019320E-07  0.00000E+00  9.000E+00
      21     1     4     4   507   514 -2.714376472E-01 -8.850130440E-01  1.219103846E+00  1.530732070E+00  2.107342426E-08  0.00000E+00  9.000E+00
#rwgt            1          17   26.287038891567693                1     6373986           0       11110           0
<weights>
0.13876E+02
</weights>
</event>
<event>
     13  10001  1.35503E+01  1.93455E+02 -1.00000E+00  1.12177E-01
       2    -1     0     0   502     0  0.000000000E+00  0.000000000E+00  1.412604535E+03  1.412604535E+03  0.000000000E+00  0.00000E+00  9.000E+00
      21    -1     0     0   507   502  0.000000000E+00  0.000000000E+00 -2.784053484E+02  2.784053484E+02  0.000000000E+00  0.00000E+00  9.000E+00
      -6     2     1     2     0   501  3.566324407E+02 -2.095291264E+02  8.573064458E+02  9.673191207E+02  1.721708068E+02  0.00000E+00  9.000E+00
       6     2     1     2   507     0 -1.711043963E+02  1.547180497E+02 -9.585654904E+01  3.037301188E+02  1.727689721E+02  0.00000E+00  9.000E+00
     -24     2     3     3     0     0  2.016885262E+02 -1.294407980E+02  6.447404681E+02  6.923125492E+02  7.856979596E+01  0.00000E+00  9.000E+00
      24     2     4     4     0     0 -1.720655974E+02  8.860410779E+01 -1.090052617E+02  2.361473668E+02  8.016342082E+01  0.00000E+00  9.000E+00
     -11     1     6     6     0     0 -3.212375686E-01 -8.621679211E+00  3.108480996E+00  9.170561602E+00  0.000000000E+00  0.00000E+00  9.000E+00
      12     1     6     6     0     0 -1.717443599E+02  9.722578700E+01 -1.121137427E+02  2.269768052E+02  4.046097457E-06  0.00000E+00  9.000E+00
      13     1     5     5     0     0 -1.853697819E+00 -2.140781493E+01  6.471073568E+01  6.818511603E+01  0.000000000E+00  0.00000E+00  9.000E+00
     -14     1     5     5     0     0  2.035422241E+02 -1.080329831E+02  5.800297324E+02  6.241274332E+02  0.000000000E+00  0.00000E+00  9.000E+00
       5     1     4     4   507     0  9.612011350E-01  6.611394189E+01  1.314871261E+01  6.758275196E+01  4.750000000E+00  0.00000E+00  9.000E+00
      -5     1     3     3     0   501  1.549439144E+02 -8.008832839E+01  2.125659777E+02  2.750065715E+02  4.750000000E+00  0.00000E+00  9.000E+00
       2     1     1     2   501     0 -1.855280444E+02  5.481107671E+01  3.727492902E+02  4.199606442E+02  0.000000000E+00  0.00000E+00  9.000E+00
#rwgt            2          37  0.44704214921927887                1     6385711           0           1           0
<weights>
0.13550E+02
</weights>
</event>
<event>
     15  10001  1.35503E+01  1.24501E+01 -1.00000E+00  2.12735E-01
       1    -1     0     0   502     0  0.000000000E+00  0.000000000E+00  5.924127373E+02  5.924127373E+02  0.000000000E+00  0.00000E+00  9.000E+00
      21    -1     0     0   507   502  0.000000000E+00  0.000000000E+00 -2.187641337E+02  2.187641337E+02  0.000000000E+00  0.00000E+00  9.000E+00
      -6     2     1     2     0   501 -5.644889058E+01 -1.248997133E+02  1.059313345E+02  2.446137306E+02  1.727078862E+02  0.00000E+00  9.000E+00
       6     2     1     2   507     0  5.715650393E+01  1.373296561E+02 -6.260154025E+01  2.360097861E+02  1.722073341E+02  0.00000E+00  9.000E+00
     -24     2     3     3     0     0  3.103863496E+01 -3.284826456E+01  3.193907421E+01  9.743245925E+01  8.019086176E+01  0.00000E+00  9.000E+00
      24     2     4     4     0     0  1.458809214E+01  1.676926639E+00  6.612799447E-01  8.016760614E+01  7.880852281E+01  0.00000E+00  9.000E+00
     -11     1     6     6     0     0  3.898264185E+01  9.338416383E+00 -2.224000434E+01  4.584179512E+01  0.000000000E+00  0.00000E+00  9.000E+00
      12     1     6     6     0     0 -2.439454971E+01 -7.661489743E+00  2.290128429E+01  3.432581103E+01  5.840038640E-07  0.00000E+00  9.000E+00
      13     1     5     5     0     0  8.384189440E+00  2.632639999E+00  5.061998103E+01  5.137711461E+01  0.000000000E+00  0.00000E+00  9.000E+00
     -14     1     5     5     0     0  2.265444552E+01 -3.548090456E+01 -1.868090682E+01  4.605534464E+01  1.469710828E-06  0.00000E+00  9.000E+00
       5     1     4     4   512     0  4.256047777E+01  1.331798748E+02 -6.156970947E+01  1.528452320E+02  4.750000000E+00  0.00000E+00  9.000E+00
      -5     1     3     3     0   511 -3.576791994E+01 -3.675102251E+01  3.087055487E+01  6.004611070E+01  4.750000000E+00  0.00000E+00  9.000E+00
       1     1     1     2   501     0 -7.076133525E-01 -1.242994281E+01  3.303188094E+02  3.305533543E+02  0.000000000E+00  0.00000E+00  9.000E+00
      21     1     3     3   511   501 -5.171960560E+01 -5.530042625E+01  4.312170538E+01  8.713516065E+01  1.066240300E-06  0.00000E+00  9.000E+00
      21     1     4     4   507   512  7.934019571E-03  2.472854682E+00 -1.693110726E+00  2.996947973E+00  6.322027277E-08  0.00000E+00  9.000E+00
#rwgt            1          17   15.583414399964939                1     6389653           0       11110           0
<weights>
0.16630E+02
</weights>
</event>
<event>
     15  10001 -1.35503E+01  3.67696E+01 -1.00000E+00  1.97976E-01
      21    -1     0     0   502   501  0.000000000E+00  0.000000000E+00  6.593935238E+01  6.593935238E+01  0.000000000E+00  0.00000E+00  9.000E+00
      21    -1     0     0   511   502  0.000000000E+00  0.000000000E+00 -1.763782656E+03  1.763782656E+03  0.000000000E+00  0.00000E+00  9.000E+00
      -6     2     1     2     0   501  9.895184446E+00  7.082603790E+01 -2.815621241E+02  3.344036169E+02  1.656330492E+02  0.00000E+00  9.000E+00
       6     2     1     2   507     0 -1.628607874E+01 -1.070359755E+02 -2.246383624E+02  3.031084239E+02  1.723089852E+02  0.00000E+00  9.000E+00
     -24     2     3     3     0     0  1.522305475E+01  1.050271039E+02 -1.856756658E+02  2.282873899E+02  7.985765787E+01  0.00000E+00  9.000E+00
      24     2     4     4     0     0 -6.607161432E+01 -4.477297717E+01 -8.535156790E+01  1.416580761E+02  8.007523128E+01  0.00000E+00  9.000E+00
     -11     1     6     6     0     0 -1.526143435E+01  2.265881853E+01 -3.063530133E+01  4.104698677E+01  0.000000000E+00  0.00000E+00  9.000E+00
      12     1     6     6     0     0 -5.081017996E+01 -6.743179569E+01 -5.471626657E+01  1.006110893E+02  2.023048729E-06  0.00000E+00  9.000E+00
      13     1     5     5     0     0  2.488292815E+00  3.549948167E+01 -1.392378456E+02  1.437135430E+02  0.000000000E+00  0.00000E+00  9.000E+00
     -14     1     5     5     0     0  1.273476193E+01  6.952762227E+01 -4.643782026E+01  8.457384685E+01  1.907348633E-06  0.00000E+00  9.000E+00
       5     1     4     4   513     0  4.485142642E+01 -4.999285447E+01 -1.053585444E+02  1.250356802E+02  4.750000000E+00  0.00000E+00  9.000E+00
      -5     1     3     3     0   512 -1.206438687E+01 -3.580867202E+01 -8.589498393E+01  9.395914637E+01  4.750000000E+00  0.00000E+00  9.000E+00
      21     1     1     2   511   507  6.390894296E+00  3.620993759E+01 -1.191642817E+03  1.192209967E+03  2.642899792E-05  0.00000E+00  9.000E+00
      21     1     3     3   512   501  6.736516567E+00  1.607605973E+00 -9.991474287E+00  1.215708069E+01  2.384185791E-07  0.00000E+00  9.000E+00
      21     1     4     4   507   513  4.934109153E+00 -1.227014385E+01 -3.392825013E+01  3.641466765E+01  6.743495762E-07  0.00000E+00  9.000E+00
#rwgt            1          17  -43.842381926238076                1     6398742           0       11110           0
<weights>
-.13127E+02
</weights>
</event>
<event>
     15  10001  1.35503E+01  6.23417E+00 -1.00000E+00  5.19159E-01
      21    -1     0     0   507   512  0.000000000E+00  0.000000000E+00  9.282036432E+02  9.282036432E+02  0.000000000E+00  0.00000E+00  9.000E+00
      21    -1     0     0   501   502  0.000000000E+00  0.000000000E+00 -8.848594850E+01  8.848594850E+01  0.000000000E+00  0.00000E+00  9.000E+00
      -6     2     1     2     0   502  1.774935356E+02 -1.404668814E+02  4.359145614E+02  5.205043256E+02  1.722450237E+02  0.00000E+00  9.000E+00
       6     2     1     2   507     0 -1.760449501E+02  1.344033410E+02  3.880979304E+02  4.792879788E+02  1.733230524E+02  0.00000E+00  9.000E+00
     -24     2     3     3     0     0  1.184458655E+02 -1.652534382E+02  3.293081480E+02  3.958046584E+02  8.294184310E+01  0.00000E+00  9.000E+00
      24     2     4     4     0     0 -2.012857177E+02  1.032424687E+02  3.155999678E+02  3.959628625E+02  7.751323273E+01  0.00000E+00  9.000E+00
     -11     1     6     6     0     0 -1.279719607E+02  8.982884053E+01  1.614962988E+02  2.247823344E+02  0.000000000E+00  0.00000E+00  9.000E+00
      12     1     6     6     0     0 -7.331375702E+01  1.341362821E+01  1.541036691E+02  1.711805281E+02  4.264961200E-06  0.00000E+00  9.000E+00
      13     1     5     5     0     0  1.981233575E+01 -7.874513838E+01  1.773008462E+02  1.950100396E+02  0.000000000E+00  0.00000E+00  9.000E+00
     -14     1     5     5     0     0  9.863352976E+01 -8.650829987E+01  1.520073018E+02  2.007946188E+02  4.672030912E-06  0.00000E+00  9.000E+00
       5     1     4     4   511     0  1.847409956E+01  1.993438583E+01  4.364971864E+01  5.163847916E+01  4.750000000E+00  0.00000E+00  9.000E+00
      -5     1     3     3     0   514  5.876883629E+01  2.434518629E+01  1.037139168E+02  1.217604339E+02  4.750000000E+00  0.00000E+00  9.000E+00
      21     1     1     2   501   512 -1.448585459E+00  6.063540351E+00  1.570520284E+01  1.689728729E+01  0.000000000E+00  0.00000E+00  9.000E+00
      21     1     4     4   507   511  6.766668081E+00  1.122648643E+01  2.884824396E+01  3.168663716E+01  0.000000000E+00  0.00000E+00  9.000E+00
      21     1     3     3   514   502  2.788337653E-01  4.413705964E-01  2.892496490E+00  2.939233270E+00  5.960464478E-08  0.00000E+00  9.000E+00
#rwgt            1          17   18.794943019215690                1     6405389           0       11011           0
<weights>
0.10777E+02
</weights>
</event>
<event>
     15  10001  1.35503E+01  1.24906E+01 -1.00000E+00  3.12670E-01
      21    -1     0     0   511   501  0.000000000E+00  0.000000000E+00  3.763246178E+02  3.763246178E+02  0.000000000E+00  0.00000E+00  9.000E+00
      21    -1     0     0   507   502  0.000000000E+00  0.000000000E+00 -1.480475015E+02  1.480475015E+02  0.000000000E+00  0.00000E+00  9.000E+00
      -6     2     1     2     0   501 -3.991068599E+01  4.689920597E+01  2.486154155E+02  3.093694051E+02  1.735148570E+02  0.00000E+00  9.000E+00
       6     2     1     2   507     0  4.205971137E+01 -3.459484336E+01  1.170582442E+01  1.806102512E+02  1.718057450E+02  0.00000E+00  9.000E+00
     -24     2     3     3     0     0 -8.404600230E+01  3.266641038E+01  1.137198350E+02  1.664280203E+02  8.145710653E+01  0.00000E+00  9.000E+00
      24     2     4     4     0     0  4.740777815E+01 -8.450746277E+01  2.946318481E+01  1.270119664E+02  7.664823328E+01  0.00000E+00  9.000E+00
     -11     1     6     6     0     0  2.580473068E+01 -4.740630485E+01  5.499904857E+01  7.705930968E+01  0.000000000E+00  0.00000E+00  9.000E+00
      12     1     6     6     0     0  2.160304747E+01 -3.710115792E+01 -2.553586376E+01  4.995265676E+01  9.536743164E-07  0.00000E+00  9.000E+00
      13     1     5     5     0     0 -1.800253610E+01 -2.171883598E+01  5.752324279E+01  6.406810909E+01  0.000000000E+00  0.00000E+00  9.000E+00
     -14     1     5     5     0     0 -6.604346620E+01  5.438524635E+01  5.619659222E+01  1.023599112E+02  2.236564522E-06  0.00000E+00  9.000E+00
       5     1     4     4   513     0 -5.232128589E+00  4.566596692E+01 -1.522751925E+01  4.865383383E+01  4.750000000E+00  0.00000E+00  9.000E+00
      -5     1     3     3     0   512  4.047457525E+01  1.064030547E+01  1.185236969E+02  1.257848822E+02  4.750000000E+00  0.00000E+00  9.000E+00
      21     1     1     2   511   502 -2.149025380E+00 -1.230436260E+01 -3.204412361E+01  3.439246294E+01  9.536743164E-07  0.00000E+00  9.000E+00
      21     1     3     3   512   501  3.660741064E+00  3.592490119E+00  1.637188355E+01  1.715650259E+01  0.000000000E+00  0.00000E+00  9.000E+00
      21     1     4     4   507   513 -1.159381943E-01  4.246652485E+00 -2.529841145E+00  4.944450952E+00  8.429369702E-08  0.00000E+00  9.000E+00
#rwgt            1          17   34.407139686209376                1     6412718           0       11110           0
<weights>
0.13192E+02
</weights>
</event>
<event>
     15  10001 -1.35503E+01  1.41705E+02 -1.00000E+00  2.81561E-01
      21    -1     0     0   512   501  0.000000000E+00  0.000000000E+00  1.283983508E+03  1.283983508E+03  0.000000000E+00  0.00000E+00  9.000E+00
      21    -1     0     0   501   502  0.000000000E+00  0.000000000E+00 -3.813968481E+02  3.813968481E+02  0.000000000E+00  0.00000E+00  9.000E+00
      -6     2     1     2     0   502 -2.497057409E+00 -1.678001500E+01  1.104284510E+02  2.062297070E+02  1.733448732E+02  0.00000E+00  9.000E+00
       6     2     1     2   507     0  1.441029945E+02  1.147066005E+01  1.098743217E+03  1.121401041E+03  1.714829092E+02  0.00000E+00  9.000E+00
     -24     2     3     3     0     0  2.089053191E+01 -6.713921451E+01  1.027196740E+02  1.482046254E+02  8.043128195E+01  0.00000E+00  9.000E+00
      24     2     4     4     0     0  3.988312784E+01  8.614135751E+00  2.685062819E+02  2.834238725E+02  8.104690515E+01  0.00000E+00  9.000E+00
     -11     1     6     6     0     0  5.731976126E+01  2.654825467E+01  2.194177649E+02  2.283298500E+02  0.000000000E+00  0.00000E+00  9.000E+00
      12     1     6     6     0     0 -1.743663342E+01 -1.793411892E+01  4.908851705E+01  5.509402248E+01  9.536743164E-07  0.00000E+00  9.000E+00
      13     1     5     5     0     0  1.729916635E+01 -1.736152509E+01  9.449837196E+01  9.762492516E+01  0.000000000E+00  0.00000E+00  9.000E+00
     -14     1     5     5     0     0  3.591365567E+00 -4.977768942E+01  8.221302060E+00  5.057970026E+01  1.681653974E-06  0.00000E+00  9.000E+00
       5     1     4     4   511     0  1.085315513E+02  4.165653506E-01  7.890754643E+02  7.965186262E+02  4.750000000E+00  0.00000E+00  9.000E+00
      -5     1     3     3     0   514 -2.526747398E+01  4.766931113E+01  6.600568497E+00  5.456132760E+01  4.750000000E+00  0.00000E+00  9.000E+00
      21     1     1     2   512   507 -1.416059371E+02  5.309354950E+00 -3.065850082E+02  3.377496083E+02  3.814697266E-06  0.00000E+00  9.000E+00
      21     1     4     4   507   511 -4.311684665E+00  2.439958946E+00  4.116147116E+01  4.145854233E+01  0.000000000E+00  0.00000E+00  9.000E+00
      21     1     3     3   514   502  1.879884661E+00  2.689888375E+00  1.108208477E+00  3.463754009E+00  1.173318606E-07  0.00000E+00  9.000E+00
#rwgt            1          17  -28.458002168400096                1     6429599           0       11011           0
<weights>
-.15108E+02
</weights>
</event>
<event>
     15  10001  1.35503E+01  5.40622E+01 -1.00000E+00  3.11584E-01
      21    -1     0     0   507   501  0.000000000E+00  0.000000000E+00  3.265855165E+02  3.265855165E+02  0.000000000E+00  0.00000E+00  9.000E+00
      21    -1     0     0   501   511  0.000000000E+00  0.000000000E+00 -2.468770054E+02  2.468770054E+02  0.000000000E+00  0.00000E+00  9.000E+00
      -6     2     1     2     0   502 -1.187811395E+02  7.790231856E+01 -2.788862997E+01  2.253838767E+02  1.727494887E+02  0.00000E+00  9.000E+00
       6     2     1     2   507     0  9.938515636E+01 -2.743929368E+01 -2.685540341E+01  2.031641609E+02  1.729859516E+02  0.00000E+00  9.000E+00
     -24     2     3     3     0     0 -1.263297102E+02  2.705718261E+01 -5.847577928E+01  1.629937592E+02  8.035086781E+01  0.00000E+00  9.000E+00
      24     2     4     4     0     0  5.350761892E+01 -8.351822450E+01 -8.851397082E+00  1.279643135E+02  8.036267282E+01  0.00000E+00  9.000E+00
     -11     1     6     6     0     0  6.607720421E+01 -7.663213463E+01 -2.710748257E+01  1.047544585E+02  0.000000000E+00  0.00000E+00  9.000E+00
      12     1     6     6     0     0 -1.256958529E+01 -6.886089870E+00  1.825608548E+01  2.320985492E+01  1.348699152E-06  0.00000E+00  9.000E+00
      13     1     5     5     0     0 -4.693288626E+01 -1.370860110E+01 -5.511896107E+01  7.367985767E+01  0.000000000E+00  0.00000E+00  9.000E+00
     -14     1     5     5     0     0 -7.939682391E+01  4.076578371E+01 -3.356818203E+00  8.931390148E+01  3.854075232E-06  0.00000E+00  9.000E+00
       5     1     4     4   512     0  4.270878775E+01  4.855441222E+01 -1.561627812E+01  6.669334404E+01  4.750000000E+00  0.00000E+00  9.000E+00
      -5     1     3     3     0   513  8.449117677E+00  4.948013836E+01  3.241201387E+01  5.993974329E+01  4.750000000E+00  0.00000E+00  9.000E+00
      21     1     1     2   502   511  1.939598310E+01 -5.046302489E+01  1.344525445E+02  1.449144843E+02  1.907348633E-06  0.00000E+00  9.000E+00
      21     1     4     4   507   512  3.168749695E+00  7.524518599E+00 -2.387728210E+00  8.506503440E+00  1.884864366E-07  0.00000E+00  9.000E+00
      21     1     3     3   513   502 -9.005469632E-01  1.364997591E+00 -1.824864572E+00  2.450374249E+00  5.575503985E-08  0.00000E+00  9.000E+00
#rwgt            1          17   24.806946993787324                1     6433012           0       11011           0
<weights>
0.13529E+02
</weights>
</event>
<event>
     14  10001  1.35503E+01  8.05363E+01 -1.00000E+00  7.52180E-01
      21    -1     0     0   507   512  0.000000000E+00  0.000000000E+00  3.460108772E+02  3.460108772E+02  0.000000000E+00  0.00000E+00  9.000E+00
      21    -1     0     0   501   502  0.000000000E+00  0.000000000E+00 -4.037995352E+02  4.037995352E+02  0.000000000E+00  0.00000E+00  9.000E+00
      -6     2     1     2     0   502  1.758891446E+02 -6.249382927E+01 -2.110310160E+02  3.309777430E+02  1.736942911E+02  0.00000E+00  9.000E+00
       6     2     1     2   507     0 -1.092716681E+02  1.077509766E+02  2.169832696E+02  3.161243379E+02  1.711791090E+02  0.00000E+00  9.000E+00
     -24     2     3     3     0     0  1.180777653E+01 -3.227743409E+01 -7.599516817E+01  1.162850124E+02  8.102889717E+01  0.00000E+00  9.000E+00
      24     2     4     4     0     0 -1.348333622E+02  1.025153532E+02  2.160571024E+02  2.862076174E+02  8.089929294E+01  0.00000E+00  9.000E+00
     -11     1     6     6     0     0 -5.507348261E+01  8.070058588E+01  7.689482089E+01  1.243321621E+02  0.000000000E+00  0.00000E+00  9.000E+00
      12     1     6     6     0     0 -7.975987954E+01  2.181476733E+01  1.391622815E+02  1.618754554E+02  4.672030912E-06  0.00000E+00  9.000E+00
      13     1     5     5     0     0  5.261302623E+00 -2.664304615E+01 -9.317717299E+01  9.705420537E+01  0.000000000E+00  0.00000E+00  9.000E+00
     -14     1     5     5     0     0  6.546473904E+00 -5.634387938E+00  1.718200482E+01  1.923080699E+01  8.259061849E-07  0.00000E+00  9.000E+00
       5     1     4     4   511     0  2.465438210E+01  1.600611271E+00 -1.890209587E+00  2.522966320E+01  4.750000000E+00  0.00000E+00  9.000E+00
      -5     1     3     3     0   502  1.640813681E+02 -3.021639518E+01 -1.350358478E+02  2.146927306E+02  4.750000000E+00  0.00000E+00  9.000E+00
      21     1     1     2   501   512 -6.661747649E+01 -4.525714728E+01 -6.374091156E+01  1.027083315E+02  1.651812370E-06  0.00000E+00  9.000E+00
      21     1     4     4   507   511  9.073119269E-01  3.635012075E+00  2.816376779E+00  4.687057273E+00  8.429369702E-08  0.00000E+00  9.000E+00
#rwgt            1          17   46.065803327396615                1     6439996           0         110           0
<weights>
0.13343E+02
</weights>
</event>
<event>
     15  10001 -1.35503E+01  2.06786E+01 -1.00000E+00  3.01079E-01
      -3    -1     0     0     0   511  0.000000000E+00  0.000000000E+00  7.536048481E+01  7.536048481E+01  0.000000000E+00  0.00000E+00  9.000E+00
       3    -1     0     0   507     0  0.000000000E+00  0.000000000E+00 -6.718768327E+02  6.718768327E+02  0.000000000E+00  0.00000E+00  9.000E+00
      -6     2     1     2     0   501  1.300688492E+02 -7.150260585E+00 -2.288493196E+02  3.147074229E+02  1.723360647E+02  0.00000E+00  9.000E+00
       6     2     1     2   507     0 -1.107123270E+02  1.442539010E+01 -3.187100649E+02  3.793849351E+02  1.728916199E+02  0.00000E+00  9.000E+00
     -24     2     3     3     0     0  2.803330977E+01 -3.248368827E+01 -1.720783211E+02  1.945853274E+02  8.007149653E+01  0.00000E+00  9.000E+00
      24     2     4     4     0     0 -1.191481456E+02  5.496570305E+01 -2.808857819E+02  3.200022029E+02  7.929109819E+01  0.00000E+00  9.000E+00
     -11     1     6     6     0     0 -5.676455519E+01  4.010478480E+01 -6.635545941E+01  9.609191164E+01  0.000000000E+00  0.00000E+00  9.000E+00
      12     1     6     6     0     0 -6.238359037E+01  1.486091825E+01 -2.145303225E+02  2.239102912E+02  3.814697266E-06  0.00000E+00  9.000E+00
      13     1     5     5     0     0  4.051867626E+01  1.250153246E+01 -1.010677010E+02  1.096026077E+02  0.000000000E+00  0.00000E+00  9.000E+00
     -14     1     5     5     0     0 -1.248536649E+01 -4.498522073E+01 -7.101062015E+01  8.498271962E+01  9.536743164E-07  0.00000E+00  9.000E+00
       5     1     4     4   512     0  7.204272278E+00 -4.167272299E+01 -3.178647408E+01  5.311741536E+01  4.750000000E+00  0.00000E+00  9.000E+00
      -5     1     3     3     0   514  9.407416699E+01  2.421882165E+01 -4.885061319E+01  1.088367820E+02  4.750000000E+00  0.00000E+00  9.000E+00
      21     1     1     2   501   511 -1.935652217E+01 -7.275129515E+00 -4.895696336E+01  5.314495951E+01  6.743495762E-07  0.00000E+00  9.000E+00
      21     1     4     4   507   512  1.231546232E+00  1.132410035E+00 -6.037808902E+00  6.265316827E+00  8.429369702E-08  0.00000E+00  9.000E+00
      21     1     3     3   514   501  7.961372455E+00  1.114606034E+00 -7.920385247E+00  1.128531348E+01  1.192092896E-07  0.00000E+00  9.000E+00
#rwgt            1          14 -0.35026461358905825                1     6448280           0       11011           0
<weights>
-.13829E+02
</weights>
</event>
<event>
     14  10001 -1.35503E+01  6.96199E+01 -1.00000E+00  6.25640E-01
      21    -1     0     0   512   501  0.000000000E+00  0.000000000E+00  2.049422049E+02  2.049422049E+02  0.000000000E+00  0.00000E+00  9.000E+00
      21    -1     0     0   501   502  0.000000000E+00  0.000000000E+00 -7.527692982E+02  7.527692982E+02  0.000000000E+00  0.00000E+00  9.000E+00
      -6     2     1     2     0   502  2.205623789E+01 -1.248972138E+02 -4.064265706E+02  4.594514275E+02  1.727057186E+02  0.00000E+00  9.000E+00
       6     2     1     2   507     0 -3.311399824E+01  5.616107543E+01 -2.845414621E+02  3.390863991E+02  1.725257637E+02  0.00000E+00  9.000E+00
     -24     2     3     3     0     0 -7.507910363E+00 -1.346489536E+02 -2.213574321E+02  2.715761182E+02  8.104175357E+01  0.00000E+00  9.000E+00
      24     2     4     4     0     0 -2.638176041E+01  7.434969385E+01 -2.955319784E+02  3.162937947E+02  8.049062101E+01  0.00000E+00  9.000E+00
     -11     1     6     6     0     0 -3.441495092E+01  1.647091310E+01 -4.480974406E+01  5.885229807E+01  0.000000000E+00  0.00000E+00  9.000E+00
      12     1     6     6     0     0  8.033190515E+00  5.787878075E+01 -2.507222343E+02  2.574414966E+02  5.394796609E-06  0.00000E+00  9.000E+00
      13     1     5     5     0     0 -9.127305491E+00 -5.676548052E+01 -2.974399633E+01  6.473277996E+01  0.000000000E+00  0.00000E+00  9.000E+00
     -14     1     5     5     0     0  1.619395129E+00 -7.788347313E+01 -1.916134358E+02  2.068433383E+02  2.697398305E-06  0.00000E+00  9.000E+00
       5     1     4     4   507     0 -6.732237838E+00 -1.818861842E+01  1.099051629E+01  2.279260438E+01  4.750000000E+00  0.00000E+00  9.000E+00
      -5     1     3     3     0   511  2.822265411E+01  1.031334249E+01 -1.813149401E+02  1.838492677E+02  4.750000000E+00  0.00000E+00  9.000E+00
      21     1     1     2   512   507  1.105776035E+01  6.873613835E+01  1.431409394E+02  1.591736766E+02  1.907348633E-06  0.00000E+00  9.000E+00
      21     1     3     3   511   502  1.341494149E+00 -5.616026276E-01 -3.754198468E+00  4.026041505E+00  4.214684851E-08  0.00000E+00  9.000E+00
#rwgt            1          17  -21.574071054467410                1     6452392           0         111           0
<weights>
-.15209E+02
</weights>
</event>
<event>
     15  10001  1.35503E+01  1.48179E+01 -1.00000E+00  4.18721E-01
       2    -1     0     0   511     0  0.000000000E+00  0.000000000E+00  2.462575228E+03  2.462575228E+03  0.000000000E+00  0.00000E+00  9.000E+00
      -2    -1     0     0     0   502  0.000000000E+00  0.000000000E+00 -2.170617195E+01  2.170617195E+01  0.000000000E+00  0.00000E+00  9.000E+00
      -6     2     1     2     0   502 -8.328313607E+00  5.465258629E+01  5.811742864E+02  6.088046346E+02  1.726941398E+02  0.00000E+00  9.000E+00
       6     2     1     2   507     0  1.641484490E+00 -4.142927259E+01  9.819438519E+02  9.976007814E+02  1.710979589E+02  0.00000E+00  9.000E+00
     -24     2     3     3     0     0  7.083586841E+00 -2.912978262E+01  3.867702685E+02  3.963829946E+02  8.142184208E+01  0.00000E+00  9.000E+00
      24     2     4     4     0     0  1.099160383E+01  2.316169509E+01  7.957485613E+02  8.001390463E+02  7.968338006E+01  0.00000E+00  9.000E+00
     -11     1     6     6     0     0  1.223125441E+01 -1.650436703E+00  1.707103391E+01  2.106532043E+01  0.000000000E+00  0.00000E+00  9.000E+00
      12     1     6     6     0     0 -1.239650582E+00  2.481213179E+01  7.786775274E+02  7.790737258E+02  2.157918644E-05  0.00000E+00  9.000E+00
      13     1     5     5     0     0 -1.659342491E+01 -2.508792145E+01  4.723394310E+01  5.599813330E+01  0.000000000E+00  0.00000E+00  9.000E+00
     -14     1     5     5     0     0  2.367701175E+01 -4.041861174E+00  3.395363254E+02  3.403848613E+02  5.394796609E-06  0.00000E+00  9.000E+00
       5     1     4     4   512     0 -4.377354918E+00 -4.445339589E+01  1.226894431E+02  1.306542292E+02  4.750000000E+00  0.00000E+00  9.000E+00
      -5     1     3     3     0   513 -1.437463261E+01  8.082556829E+01  1.898508315E+02  2.068944254E+02  4.750000000E+00  0.00000E+00  9.000E+00
      21     1     1     2   511   507  6.686829118E+00 -1.322331371E+01  8.777509176E+02  8.778759839E+02  0.000000000E+00  0.00000E+00  9.000E+00
      21     1     4     4   507   512 -4.972764425E+00 -2.013757179E+01  6.350584751E+01  6.680750595E+01  1.507891493E-06  0.00000E+00  9.000E+00
      21     1     3     3   513   502 -1.037267834E+00  2.956800622E+00  4.553186364E+00  5.527214537E+00  1.332800375E-07  0.00000E+00  9.000E+00
#rwgt            1           8   1.9300501481292083                1     6464446           0       11011           0
<weights>
0.15672E+02
</weights>
</event>
<event>
     15  10001  1.35503E+01  6.63562E+00 -1.00000E+00  6.96001E-01
      21    -1     0     0   507   512  0.000000000E+00  0.000000000E+00  2.519278520E+02  2.519278520E+02  0.000000000E+00  0.00000E+00  9.000E+00
      21    -1     0     0   501   502  0.000000000E+00  0.000000000E+00 -1.764544366E+02  1.764544366E+02  0.000000000E+00  0.00000E+00  9.000E+00
      -6     2     1     2     0   502  8.885614369E+01  7.426294937E-01 -2.472322209E+01  1.958383930E+02  1.727584230E+02  0.00000E+00  9.000E+00
       6     2     1     2   507     0 -9.406714556E+01 -4.850781865E+00  1.020089007E+02  2.256652508E+02  1.778955638E+02  0.00000E+00  9.000E+00
     -24     2     3     3     0     0 -1.436809955E+00 -1.929207936E+01 -5.299282480E+01  9.887689797E+01  8.120438858E+01  0.00000E+00  9.000E+00
      24     2     4     4     0     0 -6.443496259E+01  6.238306044E+01  3.075876303E+01  1.225361963E+02  7.762414101E+01  0.00000E+00  9.000E+00
     -11     1     6     6     0     0 -1.527977281E+01 -1.039459132E+01  2.937263115E+01  3.470260000E+01  0.000000000E+00  0.00000E+00  9.000E+00
      12     1     6     6     0     0 -4.915518978E+01  7.277765177E+01  1.386131879E+00  8.783359631E+01  1.231669087E-06  0.00000E+00  9.000E+00
      13     1     5     5     0     0  1.166431331E-01 -2.102554686E+01  1.810154954E+01  2.774442867E+01  0.000000000E+00  0.00000E+00  9.000E+00
     -14     1     5     5     0     0 -1.553453089E+00  1.733467506E+00 -7.109437434E+01  7.113246930E+01  3.438521648E-06  0.00000E+00  9.000E+00
       5     1     4     4   511     0 -2.507306358E+01 -6.418512623E+01  6.579950664E+01  9.539667982E+01  4.750000000E+00  0.00000E+00  9.000E+00
      -5     1     3     3     0   514  8.803668961E+01  1.916118696E+01  2.675205470E+01  9.410549789E+01  4.750000000E+00  0.00000E+00  9.000E+00
      21     1     1     2   501   512  5.211001876E+00  4.108152372E+00 -1.812263157E+00  6.878644794E+00  1.672651196E-07  0.00000E+00  9.000E+00
      21     1     4     4   507   511 -4.559119386E+00 -3.048716084E+00  5.450631010E+00  7.732374651E+00  1.192092896E-07  0.00000E+00  9.000E+00
      21     1     3     3   514   502  2.256264031E+00  8.735218893E-01  1.517548013E+00  2.855997171E+00  3.650024150E-08  0.00000E+00  9.000E+00
#rwgt            1          17   18.373922713576892                1     6466998           0       11011           0
<weights>
0.19989E+02
</weights>
</event>
<event>
     14  10001  1.35503E+01  2.11436E+01 -1.00000E+00  2.86953E-01
      21    -1     0     0   507   511  0.000000000E+00  0.000000000E+00  3.119551620E+02  3.119551620E+02  0.000000000E+00  0.00000E+00  9.000E+00
      21    -1     0     0   501   502  0.000000000E+00  0.000000000E+00 -5.058233249E+02  5.058233249E+02  0.000000000E+00  0.00000E+00  9.000E+00
      -6     2     1     2     0   502  1.287971696E+02 -4.915293668E+01  1.590849887E+02  2.720117841E+02  1.722720377E+02  0.00000E+00  9.000E+00
       6     2     1     2   507     0 -1.443175072E+02  3.479434851E+01 -4.038352116E+01  2.324827680E+02  1.742963540E+02  0.00000E+00  9.000E+00
     -24     2     3     3     0     0  1.195970560E+00 -2.146291976E+01  9.149465147E+01  1.245216913E+02  8.168410553E+01  0.00000E+00  9.000E+00
      24     2     4     4     0     0 -1.487265067E+02  7.712072972E+01 -4.020595997E+01  1.896627277E+02  7.929848864E+01  0.00000E+00  9.000E+00
     -11     1     6     6     0     0 -1.799539203E+01  4.754358496E+01 -1.720814231E+01  5.366886217E+01  0.000000000E+00  0.00000E+00  9.000E+00
      12     1     6     6     0     0 -1.307311147E+02  2.957714476E+01 -2.299781767E+01  1.359938655E+02  3.844384073E-06  0.00000E+00  9.000E+00
      13     1     5     5     0     0  3.841335301E+01 -1.203673310E+01  6.938788682E+01  8.021937092E+01  0.000000000E+00  0.00000E+00  9.000E+00
     -14     1     5     5     0     0 -3.721738245E+01 -9.426186657E+00  2.210676465E+01  4.430232042E+01  1.526623782E-06  0.00000E+00  9.000E+00
       5     1     4     4   507     0  4.408999456E+00 -4.232638121E+01 -1.775611905E-01  4.282004030E+01  4.750000000E+00  0.00000E+00  9.000E+00
      -5     1     3     3     0   512  1.184817412E+02 -2.371137382E+01  6.461525737E+01  1.371052378E+02  4.750000000E+00  0.00000E+00  9.000E+00
      21     1     1     2   501   511  1.552033767E+01  1.435858817E+01 -3.125696305E+02  3.132839348E+02  6.607249480E-06  0.00000E+00  9.000E+00
      21     1     3     3   512   502  9.119457779E+00 -3.978643093E+00  2.975079874E+00  1.038485490E+01  1.519626234E-07  0.00000E+00  9.000E+00
#rwgt            1          17   36.334033043900817                1     6486915           0         111           0
<weights>
0.18983E+02
</weights>
</event>
<event>
     15  10001  1.35503E+01  5.82399E+01 -1.00000E+00  2.58300E-01
      21    -1     0     0   511   501  0.000000000E+00  0.000000000E+00  1.823416599E+02  1.823416599E+02  0.000000000E+00  0.00000E+00  9.000E+00
      21    -1     0     0   501   502  0.000000000E+00  0.000000000E+00 -3.284692285E+02  3.284692285E+02  0.000000000E+00  0.00000E+00  9.000E+00
      -6     2     1     2     0   502 -7.823745354E+01  1.235540224E+01 -1.821397365E+02  2.628932832E+02  1.722330967E+02  0.00000E+00  9.000E+00
       6     2     1     2   507     0  2.260391177E+01  4.872332666E+00 -9.711075820E+00  1.738736936E+02  1.720554559E+02  0.00000E+00  9.000E+00
     -24     2     3     3     0     0 -7.115100370E+01  2.561205508E+01 -2.042510806E+02  2.320259555E+02  7.999435852E+01  0.00000E+00  9.000E+00
      24     2     4     4     0     0  1.443169854E+01 -2.664266548E+01  4.788649249E+01  9.856311737E+01  8.064407229E+01  0.00000E+00  9.000E+00
     -11     1     6     6     0     0 -2.561593027E+01  1.348606023E+01  2.132787872E+01  3.595730961E+01  0.000000000E+00  0.00000E+00  9.000E+00
      12     1     6     6     0     0  4.004762881E+01 -4.012872570E+01  2.655861377E+01  6.260580776E+01  1.118282261E-06  0.00000E+00  9.000E+00
      13     1     5     5     0     0 -1.093342503E+01  4.278122879E+01 -5.769361005E+01  7.265208848E+01  0.000000000E+00  0.00000E+00  9.000E+00
     -14     1     5     5     0     0 -6.021757867E+01 -1.716917371E+01 -1.465574706E+02  1.593738670E+02  1.907348633E-06  0.00000E+00  9.000E+00
       5     1     4     4   512     0  1.334848782E+01 -1.175101314E+00 -1.018629216E+01  1.748959800E+01  4.750000000E+00  0.00000E+00  9.000E+00
      -5     1     3     3     0   513 -8.566419404E+00 -1.538219892E+01  2.152563806E+01  2.821189783E+01  4.750000000E+00  0.00000E+00  9.000E+00
      21     1     4     4   507   512 -5.176274590E+00  3.269009946E+01 -4.741127615E+01  5.782097826E+01  1.348699152E-06  0.00000E+00  9.000E+00
      21     1     1     2   511   507  5.563354177E+01 -1.722773491E+01  4.572324382E+01  7.404391160E+01  1.168007728E-06  0.00000E+00  9.000E+00
      21     1     3     3   513   502  1.479969563E+00  2.125546081E+00  5.857060336E-01  2.655429835E+00  1.026991662E-07  0.00000E+00  9.000E+00
#rwgt            1          17   9.4058415713722194                1     6497439           0      100111           0
<weights>
0.14666E+02
</weights>
</event>
<event>
     14  10001  1.35503E+01  5.36511E+01 -1.00000E+00  2.51669E-01
      21    -1     0     0   511   501  0.000000000E+00  0.000000000E+00  5.423245111E+01  5.423245111E+01  0.000000000E+00  0.00000E+00  9.000E+00
      21    -1     0     0   501   502  0.000000000E+00  0.000000000E+00 -1.845421011E+03  1.845421011E+03  0.000000000E+00  0.00000E+00  9.000E+00
      -6     2     1     2     0   502 -2.762966422E+01 -1.550264169E+02 -9.448836782E+02  9.732748099E+02  1.722268908E+02  0.00000E+00  9.000E+00
       6     2     1     2   507     0 -1.599795215E+01  1.862524996E+02 -3.841768600E+02  4.611467256E+02  1.735468659E+02  0.00000E+00  9.000E+00
     -24     2     3     3     0     0  1.635919012E-01 -1.552330273E+02 -9.135849400E+02  9.300261375E+02  7.882800487E+01  0.00000E+00  9.000E+00
      24     2     4     4     0     0 -2.619227611E+01  8.400410623E+01 -3.159925738E+02  3.377355528E+02  8.044421492E+01  0.00000E+00  9.000E+00
     -11     1     6     6     0     0  2.874388937E+01  2.103808286E+01 -9.846362333E+01  1.047086301E+02  0.000000000E+00  0.00000E+00  9.000E+00
      12     1     6     6     0     0 -5.493616548E+01  6.296602337E+01 -2.175289505E+02  2.330269227E+02  4.672030912E-06  0.00000E+00  9.000E+00
      13     1     5     5     0     0 -3.554803705E+01 -4.026598460E+01 -2.843553744E+02  2.893838133E+02  0.000000000E+00  0.00000E+00  9.000E+00
     -14     1     5     5     0     0  3.571162896E+01 -1.149670427E+02 -6.292295657E+02  6.406423243E+02  1.078959322E-05  0.00000E+00  9.000E+00
       5     1     4     4   507     0  1.019432396E+01  1.022483934E+02 -6.818428619E+01  1.234111728E+02  4.750000000E+00  0.00000E+00  9.000E+00
      -5     1     3     3     0   512 -2.004013453E+01  3.465242715E+00 -1.830871288E+01  2.777384320E+01  4.750000000E+00  0.00000E+00  9.000E+00
      21     1     1     2   511   507  4.362761637E+01 -3.122608271E+01 -4.621280212E+02  4.652319261E+02  5.394796609E-06  0.00000E+00  9.000E+00
      21     1     3     3   512   502 -7.753121594E+00 -3.258632356E+00 -1.299002531E+01  1.547482914E+01  1.685873940E-07  0.00000E+00  9.000E+00
#rwgt            1          17   22.059751710710479                1     6499818           0         111           0
<weights>
0.13847E+02
</weights>
</event>
<event>
     14  10001  1.35503E+01  9.96312E+00 -1.00000E+00  7.02324E-01
      21    -1     0     0   512   501  0.000000000E+00  0.000000000E+00  7.317404206E+01  7.317404206E+01  0.000000000E+00  0.00000E+00  9.000E+00
      21    -1     0     0   501   502  0.000000000E+00  0.000000000E+00 -7.423276919E+02  7.423276919E+02  0.000000000E+00  0.00000E+00  9.000E+00
      -6     2     1     2     0   502 -6.307262256E+01  2.907064611E+01 -5.539181210E+02  5.841466239E+02  1.719846949E+02  0.00000E+00  9.000E+00
       6     2     1     2   507     0  6.949630440E+01 -3.668642763E+01 -1.151603788E+02  2.213917038E+02  1.719789038E+02  0.00000E+00  9.000E+00
     -24     2     3     3     0     0 -3.329946782E+01 -4.812469694E+01 -3.804367754E+02  3.917457198E+02  7.285415453E+01  0.00000E+00  9.000E+00
      24     2     4     4     0     0 -1.379497537E+01  1.984229596E+01 -7.774142170E+01  1.138943795E+02  7.965037967E+01  0.00000E+00  9.000E+00
     -11     1     6     6     0     0 -1.388459630E+01 -2.841947654E+01 -1.575840858E+01  3.533802629E+01  0.000000000E+00  0.00000E+00  9.000E+00
      12     1     6     6     0     0  8.962093294E-02  4.826177249E+01 -6.198301311E+01  7.855635321E+01  1.507891493E-06  0.00000E+00  9.000E+00
      13     1     5     5     0     0 -3.622847169E+01 -3.764312422E+01 -1.175893297E+02  1.286730641E+02  0.000000000E+00  0.00000E+00  9.000E+00
     -14     1     5     5     0     0  2.929003872E+00 -1.048157271E+01 -2.628474458E+02  2.630726557E+02  3.814697266E-06  0.00000E+00  9.000E+00
       5     1     4     4   507     0  8.329127977E+01 -5.652872358E+01 -3.741895709E+01  1.074973243E+02  4.750000000E+00  0.00000E+00  9.000E+00
      -5     1     3     3     0   511 -2.922135119E+01  7.594997265E+01 -1.677122379E+02  1.864731695E+02  4.750000000E+00  0.00000E+00  9.000E+00
      21     1     1     2   512   507 -6.423681837E+00  7.615781516E+00 -7.515002056E-02  9.963406243E+00  2.407770571E-07  0.00000E+00  9.000E+00
      21     1     3     3   511   502 -5.518035494E-01  1.245370400E+00 -5.769107630E+00  5.927734595E+00  1.460009660E-07  0.00000E+00  9.000E+00
#rwgt            1          17   29.751457600902256                1     6508399           0         111           0
<weights>
0.17920E+02
</weights>
</event>
<event>
     15  10001  1.35503E+01  2.48577E+01 -1.00000E+00  2.36818E-01
      21    -1     0     0   507   501  0.000000000E+00  0.000000000E+00  1.835128618E+03  1.835128618E+03  0.000000000E+00  0.00000E+00  9.000E+00
      21    -1     0     0   511   502  0.000000000E+00  0.000000000E+00 -8.041344825E+01  8.041344825E+01  0.000000000E+00  0.00000E+00  9.000E+00
      -6     2     1     2     0   502 -7.905629794E+01 -1.321789932E+02  1.484778239E+02  2.749026695E+02  1.726401722E+02  0.00000E+00  9.000E+00
       6     2     1     2   507     0  6.282275382E+01  1.133540706E+02  6.561142898E+02  6.901912249E+02  1.705348113E+02  0.00000E+00  9.000E+00
     -24     2     3     3     0     0 -8.360646245E+01 -1.085174874E+02  1.717418554E+02  2.342509267E+02  8.131510382E+01  0.00000E+00  9.000E+00
      24     2     4     4     0     0  5.329066530E+01  1.114371901E+02  6.612209989E+02  6.774012754E+02  8.000710111E+01  0.00000E+00  9.000E+00
     -11     1     6     6     0     0 -1.921324803E+00  1.243964769E+01  2.646276478E+02  2.649268357E+02  0.000000000E+00  0.00000E+00  9.000E+00
      12     1     6     6     0     0  5.521199010E+01  9.899754238E+01  3.965933512E+02  4.124744397E+02  5.394796609E-06  0.00000E+00  9.000E+00
      13     1     5     5     0     0 -5.495933889E+01 -9.270524190E+00  6.679465612E+01  8.699423910E+01  0.000000000E+00  0.00000E+00  9.000E+00
     -14     1     5     5     0     0 -2.864712355E+01 -9.924696321E+01  1.049471993E+02  1.472566876E+02  4.046097457E-06  0.00000E+00  9.000E+00
       5     1     4     4   514     0  8.892613724E+00  4.856407902E-01 -4.861898572E+00  1.120334698E+01  4.750000000E+00  0.00000E+00  9.000E+00
      -5     1     3     3     0   512  4.133081768E+00 -2.404828190E+01 -2.709952621E+01  3.677429875E+01  4.750000000E+00  0.00000E+00  9.000E+00
      21     1     1     2   511   501  1.623354412E+01  1.882492262E+01  9.501230558E+02  9.504481716E+02  0.000000000E+00  0.00000E+00  9.000E+00
      21     1     3     3   512   502  4.170827346E-01  3.867760714E-01  3.835494638E+00  3.877444114E+00  4.214684851E-08  0.00000E+00  9.000E+00
      21     1     4     4   507   514  6.394747996E-01  1.431239743E+00 -2.448104988E-01  1.586602471E+00  1.236661723E-07  0.00000E+00  9.000E+00
#rwgt            1          17   33.661309228377071                1     6518828           0       11110           0
<weights>
0.12128E+02
</weights>
</event>
<event>
     15  10001  1.35503E+01  1.73455E+01 -1.00000E+00  1.54491E-01
       2    -1     0     0   502     0  0.000000000E+00  0.000000000E+00  2.492043608E+03  2.492043608E+03  0.000000000E+00  0.00000E+00  9.000E+00
      21    -1     0     0   507   502  0.000000000E+00  0.000000000E+00 -9.353320605E+02  9.353320605E+02  0.000000000E+00  0.00000E+00  9.000E+00
      -6     2     1     2     0   501  7.293504014E+01  1.549240462E+02 -5.356604938E+02  5.879606789E+02  1.715943332E+02  0.00000E+00  9.000E+00
       6     2     1     2   507     0 -5.665732037E+01 -1.609158494E+02 -3.336830097E+02  4.132979323E+02  1.742609176E+02  0.00000E+00  9.000E+00
     -24     2     3     3     0     0  7.458593464E+01  1.797421337E+02 -4.723098369E+02  5.172372538E+02  8.116340581E+01  0.00000E+00  9.000E+00
      24     2     4     4     0     0  2.771269024E+01 -1.007290602E+02 -1.646158918E+02  2.117692321E+02  8.266486000E+01  0.00000E+00  9.000E+00
     -11     1     6     6     0     0  4.280912627E+01 -1.619508798E+01 -7.332824558E+01  8.644034802E+01  0.000000000E+00  0.00000E+00  9.000E+00
      12     1     6     6     0     0 -1.509643603E+01 -8.453397224E+01 -9.128764619E+01  1.253288841E+02  3.568322551E-06  0.00000E+00  9.000E+00
      13     1     5     5     0     0  2.941845021E+01  3.535120448E+01 -4.672875612E+01  6.556469720E+01  0.000000000E+00  0.00000E+00  9.000E+00
     -14     1     5     5     0     0  4.516748443E+01  1.443909292E+02 -4.255810808E+02  4.516725566E+02  1.321449896E-05  0.00000E+00  9.000E+00
       5     1     4     4   511     0 -6.709761204E+01 -3.673896771E+01 -1.438977928E+02  1.630367399E+02  4.750000000E+00  0.00000E+00  9.000E+00
      -5     1     3     3     0   512  5.469966930E+00 -6.637459920E+00 -1.049445025E+01  1.437610512E+01  4.750000000E+00  0.00000E+00  9.000E+00
      21     1     3     3   512   501 -7.120861427E+00 -1.818062759E+01 -5.285620662E+01  5.634731995E+01  1.168007728E-06  0.00000E+00  9.000E+00
      21     1     4     4   507   511 -1.727239857E+01 -2.344782142E+01 -2.516932512E+01  3.849196031E+01  1.261592536E-06  0.00000E+00  9.000E+00
       2     1     1     2   501     0 -1.627771977E+01  5.991803155E+00  2.426055051E+03  2.426117057E+03  0.000000000E+00  0.00000E+00  9.000E+00
#rwgt            1          17   20.616173213655696                1     6527650           0      111001           0
<weights>
0.12880E+02
</weights>
</event>
<event>
     13  10001  1.35503E+01  1.21143E+02 -1.00000E+00  1.20194E-01
      21    -1     0     0   511   501  0.000000000E+00  0.000000000E+00  2.311893503E+02  2.311893503E+02  0.000000000E+00  0.00000E+00  9.000E+00
      21    -1     0     0   501   502  0.000000000E+00  0.000000000E+00 -6.329655219E+02  6.329655219E+02  0.000000000E+00  0.00000E+00  9.000E+00
      -6     2     1     2     0   502 -6.945530693E+01 -2.206756976E+01 -2.950105822E+02  3.497359132E+02  1.731269710E+02  0.00000E+00  9.000E+00
       6     2     1     2   507     0  7.169669343E+01 -9.905476613E+01 -2.502562067E+02  3.266286470E+02  1.706043419E+02  0.00000E+00  9.000E+00
     -24     2     3     3     0     0 -7.727607800E+01 -6.749420406E+01 -2.549776520E+02  2.884991468E+02  8.769888733E+01  0.00000E+00  9.000E+00
      24     2     4     4     0     0  4.407030819E+01 -1.058694774E+02 -2.604547220E+02  2.960307767E+02  8.152926004E+01  0.00000E+00  9.000E+00
     -11     1     6     6     0     0  4.607761622E+01 -6.871745443E+01 -9.292739322E+01  1.244216045E+02  0.000000000E+00  0.00000E+00  9.000E+00
      12     1     6     6     0     0 -2.007308024E+00 -3.715202297E+01 -1.675273288E+02  1.716091722E+02  0.000000000E+00  0.00000E+00  9.000E+00
      13     1     5     5     0     0  1.380182956E+01 -2.196064423E+01 -2.116922243E+01  3.347979051E+01  0.000000000E+00  0.00000E+00  9.000E+00
     -14     1     5     5     0     0 -9.107790756E+01 -4.553355983E+01 -2.338084296E+02  2.550193562E+02  0.000000000E+00  0.00000E+00  9.000E+00
       5     1     4     4   507     0  2.762638523E+01  6.814711277E+00  1.019851525E+01  3.059787026E+01  4.750000000E+00  0.00000E+00  9.000E+00
      -5     1     3     3     0   502  7.820771078E+00  4.542663430E+01 -4.003293016E+01  6.123676642E+01  4.750000000E+00  0.00000E+00  9.000E+00
      21     1     1     2   511   507 -2.241386501E+00  1.211223359E+02  1.434906173E+02  1.877903121E+02  0.000000000E+00  0.00000E+00  9.000E+00
#rwgt            2         113   9.7916129450944620                1     6532529           0           1           0
<weights>
0.13550E+02
</weights>
</event>
<event>
     14  10001  1.35503E+01  7.55046E+00 -1.00000E+00  7.49581E-01
      21    -1     0     0   507   512  0.000000000E+00  0.000000000E+00  8.161101391E+01  8.161101391E+01  0.000000000E+00  0.00000E+00  9.000E+00
      21    -1     0     0   501   502  0.000000000E+00  0.000000000E+00 -5.009411708E+02  5.009411708E+02  0.000000000E+00  0.00000E+00  9.000E+00
      -6     2     1     2     0   502  6.965545548E+01 -4.000409363E+01 -2.137759572E+02  2.857222191E+02  1.717114341E+02  0.00000E+00  9.000E+00
       6     2     1     2   507     0 -7.719705983E+01  4.036971056E+01 -2.113252956E+02  2.873265442E+02  1.740949824E+02  0.00000E+00  9.000E+00
     -24     2     3     3     0     0  4.567792429E+00 -2.977104437E+01 -6.469539848E+01  1.226618172E+02  9.976596110E+01  0.00000E+00  9.000E+00
      24     2     4     4     0     0 -9.049197431E+01  4.262330889E+01 -7.156536842E+01  1.466372779E+02  7.984576039E+01  0.00000E+00  9.000E+00
     -11     1     6     6     0     0 -3.685736201E+01 -1.658061840E+01 -4.921656586E+01  6.368400424E+01  0.000000000E+00  0.00000E+00  9.000E+00
      12     1     6     6     0     0 -5.363461230E+01  5.920392729E+01 -2.234880257E+01  8.295327371E+01  2.861022949E-06  0.00000E+00  9.000E+00
      13     1     5     5     0     0  2.085765304E+01  2.888762983E+01 -4.754361784E+01  5.941323460E+01  0.000000000E+00  0.00000E+00  9.000E+00
     -14     1     5     5     0     0 -1.628986061E+01 -5.865867420E+01 -1.715178064E+01  6.324858257E+01  2.236564522E-06  0.00000E+00  9.000E+00
       5     1     4     4   513     0  1.305817250E+01 -3.892973446E+00 -1.213501860E+02  1.222051605E+02  4.750000000E+00  0.00000E+00  9.000E+00
      -5     1     3     3     0   502  6.508766305E+01 -1.023304926E+01 -1.490805587E+02  1.630604019E+02  4.750000000E+00  0.00000E+00  9.000E+00
      21     1     1     2   501   512  7.541604347E+00 -3.656169271E-01  5.771095852E+00  9.503421447E+00  3.953724850E-07  0.00000E+00  9.000E+00
      21     1     4     4   507   513  2.367419854E-01  1.639375112E+00 -1.840974119E+01  1.848410582E+01  3.371747881E-07  0.00000E+00  9.000E+00
#rwgt            1          17   51.516536357773973                1     6533112           0         110           0
<weights>
0.12246E+02
</weights>
</event>
<event>
     13  10001  1.35503E+01  1.66051E+02 -1.00000E+00  1.14670E-01
       1    -1     0     0   502     0  0.000000000E+00  0.000000000E+00  1.555944298E+03  1.555944298E+03  0.000000000E+00  0.00000E+00  9.000E+00
      21    -1     0     0   507   502  0.000000000E+00  0.000000000E+00 -1.325669122E+02  1.325669122E+02  0.000000000E+00  0.00000E+00  9.000E+00
      -6     2     1     2     0   501 -1.495299329E+02  7.776118312E+01  8.933384639E+02  9.244900148E+02  1.679945648E+02  0.00000E+00  9.000E+00
       6     2     1     2   507     0  1.848381830E+02  8.449301925E+01  7.038672137E+01  2.752950511E+02  1.718396067E+02  0.00000E+00  9.000E+00
     -24     2     3     3     0     0 -1.590108720E+02  8.562099550E+01  8.886708124E+02  9.104895031E+02  8.148564313E+01  0.00000E+00  9.000E+00
      24     2     4     4     0     0  9.582674163E+01  3.965148303E+01  1.077545187E+02  1.687459318E+02  7.816104316E+01  0.00000E+00  9.000E+00
     -11     1     6     6     0     0  9.588085083E+01  3.244841879E+01  5.441425736E+01  1.149214899E+02  0.000000000E+00  0.00000E+00  9.000E+00
      12     1     6     6     0     0 -5.410919542E-02  7.203064246E+00  5.334026133E+01  5.382444186E+01  0.000000000E+00  0.00000E+00  9.000E+00
      13     1     5     5     0     0 -3.507864982E+01  6.031389108E+01  2.586009951E+02  2.678483746E+02  0.000000000E+00  0.00000E+00  9.000E+00
     -14     1     5     5     0     0 -1.239322222E+02  2.530710442E+01  6.300698173E+02  6.426411284E+02  0.000000000E+00  0.00000E+00  9.000E+00
       5     1     4     4   507     0  8.901144132E+01  4.484153622E+01 -3.736779733E+01  1.065491194E+02  4.750000000E+00  0.00000E+00  9.000E+00
      -5     1     3     3     0   501  9.480939125E+00 -7.859812379E+00  4.667651510E+00  1.400051170E+01  4.750000000E+00  0.00000E+00  9.000E+00
       1     1     1     2   501     0 -3.530825006E+01 -1.622542024E+02  4.596522005E+02  4.887261443E+02  0.000000000E+00  0.00000E+00  9.000E+00
#rwgt            2          17  0.18787980275163635                1     6547413           0           1           0
<weights>
0.13550E+02
</weights>
</event>
<event>
     14  10001 -1.35503E+01  2.18820E+02 -1.00000E+00  7.51984E-01
      21    -1     0     0   507   501  0.000000000E+00  0.000000000E+00  2.648287411E+02  2.648287411E+02  0.000000000E+00  0.00000E+00  9.000E+00
       2    -1     0     0   501     0  0.000000000E+00  0.000000000E+00 -5.651722233E+02  5.651722233E+02  0.000000000E+00  0.00000E+00  9.000E+00
      -6     2     1     2     0   502  7.012291330E+00 -1.407594348E+02 -1.463317799E+02  2.662524293E+02  1.720900218E+02  0.00000E+00  9.000E+00
       6     2     1     2   507     0 -1.511935493E+01 -7.791001067E+01  1.116335115E+02  2.195837048E+02  1.716286627E+02  0.00000E+00  9.000E+00
     -24     2     3     3     0     0 -5.145654905E+01 -8.810273386E+01 -1.328095089E+02  1.862727584E+02  8.154328113E+01  0.00000E+00  9.000E+00
      24     2     4     4     0     0 -1.145824829E+01 -3.899411622E+01  1.428820961E+02  1.692289735E+02  8.106367578E+01  0.00000E+00  9.000E+00
     -11     1     6     6     0     0  1.965460194E+01 -4.223173304E+01  3.904031240E+01  6.077802765E+01  0.000000000E+00  0.00000E+00  9.000E+00
      12     1     6     6     0     0 -3.111285023E+01  3.237616819E+00  1.038417837E+02  1.084509459E+02  0.000000000E+00  0.00000E+00  9.000E+00
      13     1     5     5     0     0  1.303256667E+01 -5.697919265E+01 -5.122306428E+01  7.771922865E+01  0.000000000E+00  0.00000E+00  9.000E+00
     -14     1     5     5     0     0 -6.448911572E+01 -3.112354121E+01 -8.158644464E+01  1.085535297E+02  9.536743164E-07  0.00000E+00  9.000E+00
       5     1     4     4   511     0 -2.707209195E+00 -3.125755304E+01 -2.597288254E+01  4.100630111E+01  4.750000000E+00  0.00000E+00  9.000E+00
      -5     1     3     3     0   502  5.846884038E+01 -5.265670092E+01 -1.352227096E+01  7.997967091E+01  4.750000000E+00  0.00000E+00  9.000E+00
       2     1     1     2   502     0  8.107063599E+00  2.186694454E+02 -2.656452139E+02  3.441648304E+02  0.000000000E+00  0.00000E+00  9.000E+00
      21     1     4     4   507   511 -9.538974394E-01 -7.658341415E+00 -5.275702078E+00  9.348430134E+00  2.920019320E-07  0.00000E+00  9.000E+00
#rwgt            1          17  -22.178697910949051                1     6550203           0         110           0
<weights>
-.13116E+02
</weights>
</event>
<event>
     14  10001  1.35503E+01  5.27789E+01 -1.00000E+00  7.52672E-01
      21    -1     0     0   502   511  0.000000000E+00  0.000000000E+00  2.613419325E+02  2.613419325E+02  0.000000000E+00  0.00000E+00  9.000E+00
      21    -1     0     0   507   502  0.000000000E+00  0.000000000E+00 -1.520286313E+03  1.520286313E+03  0.000000000E+00  0.00000E+00  9.000E+00
      -6     2     1     2     0   501 -7.165732880E+01 -2.384180215E+02  8.037698486E+01  3.137664450E+02  1.732368222E+02  0.00000E+00  9.000E+00
       6     2     1     2   507     0  3.665456893E+01  1.989158733E+02 -1.377167320E+03  1.402916214E+03  1.751370697E+02  0.00000E+00  9.000E+00
     -24     2     3     3     0     0 -5.407878047E+01 -1.880044913E+02 -6.649540547E+00  2.115573064E+02  8.026253336E+01  0.00000E+00  9.000E+00
      24     2     4     4     0     0  4.435225384E+01  2.186684049E+02 -1.145577995E+03  1.169732193E+03  7.836752072E+01  0.00000E+00  9.000E+00
     -11     1     6     6     0     0 -1.190712927E+01  4.400978538E+01 -1.313241029E+02  1.390131683E+02  0.000000000E+00  0.00000E+00  9.000E+00
      12     1     6     6     0     0  5.625938311E+01  1.746586195E+02 -1.014253892E+03  1.030719025E+03  3.051757812E-05  0.00000E+00  9.000E+00
      13     1     5     5     0     0 -1.314665021E+01 -1.614370273E+02 -1.227482195E+01  1.624358934E+02  0.000000000E+00  0.00000E+00  9.000E+00
     -14     1     5     5     0     0 -4.093213026E+01 -2.656746402E+01  5.625281405E+00  4.912141308E+01  1.217161289E-06  0.00000E+00  9.000E+00
       5     1     4     4   512     0 -7.250360050E+00 -2.236782049E+01 -1.896949563E+02  1.912057166E+02  4.750000000E+00  0.00000E+00  9.000E+00
      -5     1     3     3     0   501 -1.757854834E+01 -5.041353018E+01  8.702652541E+01  1.022091386E+02  4.750000000E+00  0.00000E+00  9.000E+00
      21     1     1     2   501   511  3.500275987E+01  3.950214823E+01  3.784595493E+01  6.494558659E+01  2.523185073E-06  0.00000E+00  9.000E+00
      21     1     4     4   507   512 -4.473248546E-01  2.615288857E+00 -4.189436867E+01  4.197830346E+01  8.259061849E-07  0.00000E+00  9.000E+00
#rwgt            1          17   285.40504750968256                1     6563390           0         110           0
<weights>
0.11226E+02
</weights>
</event>
<event>
     13  10001  1.35503E+01  7.34850E+01 -1.00000E+00  1.30161E-01
      21    -1     0     0   512   501  0.000000000E+00  0.000000000E+00  1.109000898E+03  1.109000898E+03  0.000000000E+00  0.00000E+00  9.000E+00
      21    -1     0     0   507   502  0.000000000E+00  0.000000000E+00 -5.389604247E+02  5.389604247E+02  0.000000000E+00  0.00000E+00  9.000E+00
      -6     2     1     2     0   501  2.071097507E+02 -1.879378000E+02 -2.868252501E+02  4.367559734E+02  1.739884787E+02  0.00000E+00  9.000E+00
       6     2     1     2   507     0 -1.353432405E+02  2.037367683E+02 -4.788341617E+01  3.034768409E+02  1.731441825E+02  0.00000E+00  9.000E+00
     -24     2     3     3     0     0  2.762262745E+01 -3.101906628E+01 -6.799326635E+01  1.131062924E+02  8.027924447E+01  0.00000E+00  9.000E+00
      24     2     4     4     0     0 -1.404584956E+02  2.239166660E+02 -3.460972070E+01  2.783342953E+02  8.003052464E+01  0.00000E+00  9.000E+00
     -11     1     6     6     0     0 -4.437429770E+00  2.603250280E+01 -2.746794516E+01  3.810341187E+01  0.000000000E+00  0.00000E+00  9.000E+00
      12     1     6     6     0     0 -1.360210659E+02  1.978841632E+02 -7.141775545E+00  2.402308834E+02  5.830906439E-06  0.00000E+00  9.000E+00
      13     1     5     5     0     0 -5.898892124E+00 -4.956135115E+01 -2.604452953E+01  5.629779724E+01  0.000000000E+00  0.00000E+00  9.000E+00
     -14     1     5     5     0     0  3.352151957E+01  1.854228487E+01 -4.194873682E+01  5.680849517E+01  4.768371582E-07  0.00000E+00  9.000E+00
       5     1     4     4   507     0  5.115255152E+00 -2.017989775E+01 -1.327369546E+01  2.514254561E+01  4.750000000E+00  0.00000E+00  9.000E+00
      -5     1     3     3     0   501  1.794871232E+02 -1.569187337E+02 -2.188319837E+02  3.236496810E+02  4.750000000E+00  0.00000E+00  9.000E+00
      21     1     1     2   512   502 -7.176651020E+01 -1.579896828E+01  9.047491399E+02  9.077285087E+02  0.000000000E+00  0.00000E+00  9.000E+00
#rwgt            2         113   3.1884535133351539                1     6609333           0           1           0
<weights>
0.13550E+02
</weights>
</event>
<event>
     15  10001  1.35503E+01  1.55834E+01 -1.00000E+00  1.66117E-01
      21    -1     0     0   513   501  0.000000000E+00  0.000000000E+00  1.066733447E+03  1.066733447E+03  0.000000000E+00  0.00000E+00  9.000E+00
      21    -1     0     0   507   502  0.000000000E+00  0.000000000E+00 -1.219135670E+02  1.219135670E+02  0.000000000E+00  0.00000E+00  9.000E+00
      -6     2     1     2     0   501  2.122936482E+02 -8.324356811E+01  7.301949389E+02  7.845904470E+02  1.743543404E+02  0.00000E+00  9.000E+00
       6     2     1     2   507     0 -2.261878834E+02  9.029991122E+01  1.439556631E+02  3.316895263E+02  1.731464014E+02  0.00000E+00  9.000E+00
     -24     2     3     3     0     0  7.507098554E+01 -9.378947773E+01  4.031015629E+02  4.276845380E+02  7.740203487E+01  0.00000E+00  9.000E+00
      24     2     4     4     0     0 -1.439581468E+02 -1.193411599E+01  7.447542983E+01  1.815238002E+02  8.085746252E+01  0.00000E+00  9.000E+00
     -11     1     6     6     0     0 -8.896941820E+01  1.836978257E+01  9.780480566E+00  9.137102433E+01  0.000000000E+00  0.00000E+00  9.000E+00
      12     1     6     6     0     0 -5.498872857E+01 -3.030389855E+01  6.469494926E+01  9.015277587E+01  0.000000000E+00  0.00000E+00  9.000E+00
      13     1     5     5     0     0  8.032395585E+01 -4.317284751E+01  2.801415434E+02  2.946101101E+02  0.000000000E+00  0.00000E+00  9.000E+00
     -14     1     5     5     0     0 -5.252970309E+00 -5.061663022E+01  1.229600195E+02  1.330744278E+02  3.568322551E-06  0.00000E+00  9.000E+00
       5     1     4     4   512     0 -7.396581993E+01  9.918307579E+01  6.137169669E+01  1.381928822E+02  4.750000000E+00  0.00000E+00  9.000E+00
      -5     1     3     3     0   511  1.264242918E+02  1.599887157E+00  2.709109957E+02  2.989999855E+02  4.750000000E+00  0.00000E+00  9.000E+00
      21     1     3     3   511   501  1.079837081E+01  8.946022462E+00  5.618238027E+01  5.790592355E+01  1.507891493E-06  0.00000E+00  9.000E+00
      21     1     1     2   513   502  1.389423524E+01 -7.056343108E+00  7.066927792E+01  7.236704079E+01  1.348699152E-06  0.00000E+00  9.000E+00
      21     1     4     4   507   512 -8.263916694E+00  3.050951423E+00  8.108536611E+00  1.197284384E+01  0.000000000E+00  0.00000E+00  9.000E+00
#rwgt            1          17   23.393752214471700                1     6609532           0      110110           0
<weights>
0.16563E+02
</weights>
</event>
<event>
     13  10001  1.35503E+01  2.00139E+01 -1.00000E+00  7.50941E-01
      21    -1     0     0   502   501  0.000000000E+00  0.000000000E+00  3.257131712E+02  3.257131712E+02  0.000000000E+00  0.00000E+00  9.000E+00
      21    -1     0     0   512   502  0.000000000E+00  0.000000000E+00 -4.025003896E+02  4.025003896E+02  0.000000000E+00  0.00000E+00  9.000E+00
      -6     2     1     2     0   501  3.407881870E+01  8.265947872E+01 -1.051439517E+02  2.208188919E+02  1.723710449E+02  0.00000E+00  9.000E+00
       6     2     1     2   507     0 -5.364912397E+01 -7.846922770E+01 -1.989374251E+02  2.792210737E+02  1.713261822E+02  0.00000E+00  9.000E+00
     -24     2     3     3     0     0 -4.606186304E+01  3.675209022E+01 -7.319659514E+01  1.229760931E+02  7.932822045E+01  0.00000E+00  9.000E+00
      24     2     4     4     0     0 -6.212094315E+01 -9.592155507E+01 -8.454710967E+01  1.631001789E+02  7.995935400E+01  0.00000E+00  9.000E+00
     -11     1     6     6     0     0  5.424747219E+00 -4.821705234E+01 -5.933674582E+01  7.664960159E+01  0.000000000E+00  0.00000E+00  9.000E+00
      12     1     6     6     0     0 -6.754569037E+01 -4.770450274E+01 -2.521036385E+01  8.645057730E+01  1.168007728E-06  0.00000E+00  9.000E+00
      13     1     5     5     0     0  1.023889506E+01 -3.101509516E+00 -4.856795626E+01  4.973229040E+01  0.000000000E+00  0.00000E+00  9.000E+00
     -14     1     5     5     0     0 -5.630075809E+01  3.985359973E+01 -2.462863888E+01  7.324380265E+01  8.259061849E-07  0.00000E+00  9.000E+00
       5     1     4     4   507     0  8.471819180E+00  1.745232737E+01 -1.143903154E+02  1.161208948E+02  4.750000000E+00  0.00000E+00  9.000E+00
      -5     1     3     3     0   501  8.014068174E+01  4.590738850E+01 -3.194735661E+01  9.784279883E+01  4.750000000E+00  0.00000E+00  9.000E+00
      21     1     1     2   512   507  1.957030527E+01 -4.190251020E+00  2.272941585E+02  2.281735952E+02  2.697398305E-06  0.00000E+00  9.000E+00
#rwgt            1          17   47.150456191063284                1     6615550           0           1           0
<weights>
0.96176E+01
</weights>
</event>
<event>
     15  10001 -1.35503E+01  4.16788E+00 -1.00000E+00  3.04454E-01
       2    -1     0     0   511     0  0.000000000E+00  0.000000000E+00  1.298461041E+03  1.298461041E+03  0.000000000E+00  0.00000E+00  9.000E+00
      -2    -1     0     0     0   502  0.000000000E+00  0.000000000E+00 -8.445724304E+01  8.445724304E+01  0.000000000E+00  0.00000E+00  9.000E+00
      -6     2     1     2     0   502 -1.703556026E+02 -5.998989084E+01  4.323586664E+02  4.992344573E+02  1.722823514E+02  0.00000E+00  9.000E+00
       6     2     1     2   507     0  1.668999609E+02  6.232008436E+01  8.140453042E+02  8.510166802E+02  1.726853866E+02  0.00000E+00  9.000E+00
     -24     2     3     3     0     0 -1.913065704E+02 -2.768902067E+01  3.724805289E+02  4.275612340E+02  8.186561300E+01  0.00000E+00  9.000E+00
      24     2     4     4     0     0  7.259574428E+01  8.302562165E+01  6.166146553E+02  6.311543615E+02  7.732269337E+01  0.00000E+00  9.000E+00
     -11     1     6     6     0     0  7.329562836E+01  8.874767518E+01  6.142206639E+02  6.249123322E+02  0.000000000E+00  0.00000E+00  9.000E+00
      12     1     6     6     0     0 -6.998840760E-01 -5.722053524E+00  2.393991404E+00  6.242029245E+00  7.963412533E-07  0.00000E+00  9.000E+00
      13     1     5     5     0     0 -3.906729568E+01  2.250229874E+01  4.927876834E+01  6.679074823E+01  0.000000000E+00  0.00000E+00  9.000E+00
     -14     1     5     5     0     0 -1.522392748E+02 -5.019131940E+01  3.232017606E+02  3.607704857E+02  6.607249480E-06  0.00000E+00  9.000E+00
       5     1     4     4   513     0  8.907912870E+01 -1.976357408E+01  1.883949405E+02  2.093822011E+02  4.750000000E+00  0.00000E+00  9.000E+00
      -5     1     3     3     0   512  1.927777963E+01 -2.516724565E+01  4.817111175E+01  5.786226360E+01  4.750000000E+00  0.00000E+00  9.000E+00
      21     1     1     2   511   507  3.455641693E+00 -2.330193523E+00 -3.240017278E+01  3.266714646E+01  2.286830675E-06  0.00000E+00  9.000E+00
      21     1     3     3   512   502  1.673188212E+00 -7.133624519E+00  1.170702568E+01  1.381095970E+01  3.371747881E-07  0.00000E+00  9.000E+00
      21     1     4     4   507   513  5.225087930E+00 -9.419632157E-01  9.035708372E+00  1.048011757E+01  1.685873940E-07  0.00000E+00  9.000E+00
#rwgt            1           8 -0.53477522791190679                1     6630151           0       11110           0
<weights>
-.89867E+01
</weights>
</event>
<event>
     14  10001  1.35503E+01  5.09147E+01 -1.00000E+00  1.54419E-01
      21    -1     0     0   512   501  0.000000000E+00  0.000000000E+00  1.280763538E+02  1.280763538E+02  0.000000000E+00  0.00000E+00  9.000E+00
       2    -1     0     0   507     0  0.000000000E+00  0.000000000E+00 -4.396042345E+02  4.396042345E+02  0.000000000E+00  0.00000E+00  9.000E+00
      -6     2     1     2     0   501 -6.925084389E+01 -9.373372750E+00 -2.284744875E+02  2.948175230E+02  1.727230180E+02  0.00000E+00  9.000E+00
       6     2     1     2   507     0  1.128288194E+02  3.570341499E+01 -7.314348146E+01  2.209928674E+02  1.717055684E+02  0.00000E+00  9.000E+00
     -24     2     3     3     0     0 -7.576506246E+01 -6.135359633E+01 -1.236682756E+02  1.756703522E+02  7.785641782E+01  0.00000E+00  9.000E+00
      24     2     4     4     0     0  6.302841086E+01  8.178522442E+01 -7.834837660E+01  1.527780062E+02  8.087797939E+01  0.00000E+00  9.000E+00
     -11     1     6     6     0     0  6.558623975E+01  4.554358522E+01 -8.412918761E+01  1.159891944E+02  0.000000000E+00  0.00000E+00  9.000E+00
      12     1     6     6     0     0 -2.557828887E+00  3.624163920E+01  5.780811009E+00  3.678881184E+01  8.554875907E-07  0.00000E+00  9.000E+00
      13     1     5     5     0     0 -8.399403157E+01 -5.401697330E+01 -1.292323307E+02  1.633212357E+02  0.000000000E+00  0.00000E+00  9.000E+00
     -14     1     5     5     0     0  8.228969112E+00 -7.336623027E+00  5.564055078E+00  1.234911653E+01  3.153981341E-07  0.00000E+00  9.000E+00
       5     1     4     4   507     0  4.980040857E+01 -4.608180942E+01  5.204895144E+00  6.821486119E+01  4.750000000E+00  0.00000E+00  9.000E+00
      -5     1     3     3     0   511  6.167090559E+00  1.237750259E+01 -4.583911829E+01  4.811468426E+01  4.750000000E+00  0.00000E+00  9.000E+00
       2     1     1     2   512     0 -4.357797554E+01 -2.633004224E+01 -9.909911775E+00  5.187019788E+01  0.000000000E+00  0.00000E+00  9.000E+00
      21     1     3     3   511   501  3.471280029E-01  3.960272099E+01 -5.896709359E+01  7.103248648E+01  6.743495762E-07  0.00000E+00  9.000E+00
#rwgt            1           6  0.36640521157853739                1     6641365           0         111           0
<weights>
0.19681E+02
</weights>
</event>
<event>
     14  10001 -1.35503E+01  3.09740E+01 -1.00000E+00  1.74073E-01
      21    -1     0     0   507   501  0.000000000E+00  0.000000000E+00  8.691914150E+01  8.691914150E+01  0.000000000E+00  0.00000E+00  9.000E+00
       2    -1     0     0   501     0  0.000000000E+00  0.000000000E+00 -1.866093160E+03  1.866093160E+03  0.000000000E+00  0.00000E+00  9.000E+00
      -6     2     1     2     0   502 -8.013980240E+01 -5.716221871E+01 -1.051171655E+02  2.241770646E+02  1.718017190E+02  0.00000E+00  9.000E+00
       6     2     1     2   507     0  9.975886953E+01  3.319386497E+01 -3.557565942E+02  4.101711545E+02  1.749970198E+02  0.00000E+00  9.000E+00
     -24     2     3     3     0     0 -5.634326476E+01 -3.595087467E+00  4.316918859E+00  9.916246485E+01  8.140682102E+01  0.00000E+00  9.000E+00
      24     2     4     4     0     0  5.499222926E+01 -4.989158967E+01 -2.001295806E+02  2.281009078E+02  8.040434770E+01  0.00000E+00  9.000E+00
     -11     1     6     6     0     0  3.863056642E+01  2.609176145E+00 -1.455891050E+02  1.506496464E+02  0.000000000E+00  0.00000E+00  9.000E+00
      12     1     6     6     0     0  1.636166284E+01 -5.250076581E+01 -5.454047558E+01  7.745126144E+01  2.023048729E-06  0.00000E+00  9.000E+00
      13     1     5     5     0     0 -2.806057150E+01 -1.896563879E+01  3.912757038E+01  5.174995548E+01  0.000000000E+00  0.00000E+00  9.000E+00
     -14     1     5     5     0     0 -2.828269326E+01  1.537055132E+01 -3.481065152E+01  4.741250938E+01  6.743495762E-07  0.00000E+00  9.000E+00
       5     1     4     4   507     0  4.476664027E+01  8.308545464E+01 -1.556270137E+02  1.820702467E+02  4.750000000E+00  0.00000E+00  9.000E+00
      -5     1     3     3     0   512 -1.231495627E+01 -1.733259067E+01 -4.894040671E+01  5.357054000E+01  4.750000000E+00  0.00000E+00  9.000E+00
       2     1     1     2   502     0 -1.961906713E+01  2.396835374E+01 -1.318300259E+03  1.318664082E+03  0.000000000E+00  0.00000E+00  9.000E+00
      21     1     3     3   512   502 -1.148158136E+01 -3.623454057E+01 -6.049367761E+01  7.144405974E+01  9.536743164E-07  0.00000E+00  9.000E+00
#rwgt            1          17  -12.980270659429159                1     6645398           0         111           0
<weights>
-.12990E+02
</weights>
</event>
<event>
     14  10001  1.35503E+01  9.91703E+01 -1.00000E+00  7.52623E-01
      -1    -1     0     0     0   501  0.000000000E+00  0.000000000E+00  1.025866815E+03  1.025866815E+03  0.000000000E+00  0.00000E+00  9.000E+00
      21    -1     0     0   501   502  0.000000000E+00  0.000000000E+00 -1.287259200E+02  1.287259200E+02  0.000000000E+00  0.00000E+00  9.000E+00
      -6     2     1     2     0   502 -8.778217877E+01  4.468163946E+01 -1.581532255E+00  1.944013432E+02  1.675924258E+02  0.00000E+00  9.000E+00
       6     2     1     2   507     0  1.619792925E+02  2.111756059E+01  5.900993086E+02  6.360263478E+02  1.721309925E+02  0.00000E+00  9.000E+00
     -24     2     3     3     0     0 -5.308491974E+01  9.068214045E+01  1.908836909E+01  1.330030273E+02  7.927282091E+01  0.00000E+00  9.000E+00
      24     2     4     4     0     0  6.233257825E+01  6.866692140E+01  3.669656663E+02  3.868266575E+02  7.981582717E+01  0.00000E+00  9.000E+00
     -11     1     6     6     0     0  6.950853751E+01  7.273534522E+01  3.646274837E+02  3.782526525E+02  0.000000000E+00  0.00000E+00  9.000E+00
      12     1     6     6     0     0 -7.175959265E+00 -4.068423823E+00  2.338182621E+00  8.574005001E+00  4.031583446E-07  0.00000E+00  9.000E+00
      13     1     5     5     0     0  1.167004641E+01  1.319268289E+01  2.641996028E+01  3.175297098E+01  0.000000000E+00  0.00000E+00  9.000E+00
     -14     1     5     5     0     0 -6.475496615E+01  7.748945756E+01 -7.331591190E+00  1.012500563E+02  4.248268528E-06  0.00000E+00  9.000E+00
       5     1     4     4   511     0  4.298129247E+01 -1.967308534E+01  1.049457908E+02  1.151981045E+02  4.750000000E+00  0.00000E+00  9.000E+00
      -5     1     3     3     0   502 -3.469725903E+01 -4.600050099E+01 -2.066990134E+01  6.139831591E+01  4.750000000E+00  0.00000E+00  9.000E+00
      -1     1     1     2     0   507 -7.419711372E+01 -6.579920005E+01  3.086231185E+02  3.241650439E+02  0.000000000E+00  0.00000E+00  9.000E+00
      21     1     4     4   507   511  5.666542177E+01 -2.787627547E+01  1.181878515E+02  1.340015858E+02  3.015782986E-06  0.00000E+00  9.000E+00
#rwgt            1          17   15.359134429997722                1     6654134           0         110           0
<weights>
0.15321E+02
</weights>
</event>
<event>
     15  10001  1.35503E+01  5.62142E+01 -1.00000E+00  2.13864E-01
      21    -1     0     0   502   501  0.000000000E+00  0.000000000E+00  5.236790591E+02  5.236790591E+02  0.000000000E+00  0.00000E+00  9.000E+00
      21    -1     0     0   507   512  0.000000000E+00  0.000000000E+00 -1.128196782E+02  1.128196782E+02  0.000000000E+00  0.00000E+00  9.000E+00
      -6     2     1     2     0   501  2.004303157E+01 -4.984326426E+01  2.485850422E+02  3.038316196E+02  1.662319336E+02  0.00000E+00  9.000E+00
       6     2     1     2   507     0  3.505748137E+01  6.097741052E+01  5.804507791E+01  2.142450990E+02  1.938671189E+02  0.00000E+00  9.000E+00
     -24     2     3     3     0     0  3.670077602E+01 -8.385915330E+00  2.308699082E+02  2.476671444E+02  8.136847914E+01  0.00000E+00  9.000E+00
      24     2     4     4     0     0  4.869768606E+01  8.735995889E+01  6.042974087E+01  1.392576015E+02  7.574760033E+01  0.00000E+00  9.000E+00
     -11     1     6     6     0     0  1.586851320E+01  8.613891020E+01  6.041901320E+01  1.064057269E+02  0.000000000E+00  0.00000E+00  9.000E+00
      12     1     6     6     0     0  3.282917287E+01  1.221048686E+00  1.072767467E-02  3.285187462E+01  1.045348023E-06  0.00000E+00  9.000E+00
      13     1     5     5     0     0  5.906940090E+01  4.212193121E+00  1.193980387E+02  1.332772612E+02  0.000000000E+00  0.00000E+00  9.000E+00
     -14     1     5     5     0     0 -2.236862488E+01 -1.259810845E+01  1.114718694E+02  1.143898833E+02  2.336015456E-06  0.00000E+00  9.000E+00
       5     1     4     4   511     0 -4.260233712E+00  2.000324366E+01  1.362330409E+01  2.502870876E+01  4.750000000E+00  0.00000E+00  9.000E+00
      -5     1     3     3     0   514 -1.973437949E+01 -3.865820650E+01  6.425953230E+00  4.413341182E+01  4.750000000E+00  0.00000E+00  9.000E+00
      21     1     4     4   507   511 -9.379970982E+00 -4.638579203E+01 -1.600796705E+01  4.995878869E+01  1.369610464E-06  0.00000E+00  9.000E+00
      21     1     1     2   502   512 -5.510051294E+01 -1.113414625E+01  1.042292607E+02  1.184220188E+02  2.336015456E-06  0.00000E+00  9.000E+00
      21     1     3     3   514   501  3.076635039E+00 -2.799142432E+00  1.128918083E+01  1.203106335E+01  2.665600750E-07  0.00000E+00  9.000E+00
#rwgt            1          17   27.480322713454825                1     6661193           0      100111           0
<weights>
0.20662E+02
</weights>
</event>
<event>
     14  10001  1.35503E+01  1.70486E+01 -1.00000E+00  7.32406E-01
      -1    -1     0     0     0   501  0.000000000E+00  0.000000000E+00  3.936113189E+01  3.936113189E+01  0.000000000E+00  0.00000E+00  9.000E+00
       1    -1     0     0   512     0  0.000000000E+00  0.000000000E+00 -1.171905151E+03  1.171905151E+03  0.000000000E+00  0.00000E+00  9.000E+00
      -6     2     1     2     0   501 -1.336391830E+01  1.934455894E+01 -2.826370993E+02  3.328500022E+02  1.742199408E+02  0.00000E+00  9.000E+00
       6     2     1     2   507     0  2.971253971E+01 -1.450957825E+01 -5.372406162E+02  5.652855223E+02  1.727046008E+02  0.00000E+00  9.000E+00
     -24     2     3     3     0     0 -2.722615725E+01 -5.331730323E+01 -1.433559217E+02  1.750725741E+02  8.071856942E+01  0.00000E+00  9.000E+00
      24     2     4     4     0     0  6.161403627E+01 -6.191228076E+01 -3.789415468E+02  3.968814158E+02  7.930159105E+01  0.00000E+00  9.000E+00
     -11     1     6     6     0     0 -8.013082717E+00 -7.720931605E+00 -1.661642369E+02  1.665364102E+02  0.000000000E+00  0.00000E+00  9.000E+00
      12     1     6     6     0     0  6.962711899E+01 -5.419134916E+01 -2.127773099E+02  2.303450056E+02  0.000000000E+00  0.00000E+00  9.000E+00
      13     1     5     5     0     0 -3.964464002E+00 -7.053038318E+01 -9.041896137E+01  1.147424965E+02  0.000000000E+00  0.00000E+00  9.000E+00
     -14     1     5     5     0     0 -2.326169325E+01  1.721307995E+01 -5.293696036E+01  6.033007762E+01  1.348699152E-06  0.00000E+00  9.000E+00
       5     1     4     4   511     0 -2.852653971E+01  4.048997438E+01 -1.361478559E+02  1.449551747E+02  4.750000000E+00  0.00000E+00  9.000E+00
      -5     1     3     3     0   501  1.386223895E+01  7.266186217E+01 -1.392811776E+02  1.577774281E+02  4.750000000E+00  0.00000E+00  9.000E+00
      21     1     1     2   512   507 -1.634862141E+01 -4.834980688E+00 -3.126663031E+02  3.131307579E+02  3.814697266E-06  0.00000E+00  9.000E+00
      21     1     4     4   507   511 -3.374956849E+00  6.912728135E+00 -2.215121347E+01  2.344893179E+01  2.384185791E-07  0.00000E+00  9.000E+00
#rwgt            1           2  0.19440381724044414                1     6666039           0         110           0
<weights>
0.20106E+02
</weights>
</event>
<event>
     15  10001  1.35503E+01  9.19331E+01 -1.00000E+00  2.55843E-01
      -2    -1     0     0     0   501  0.000000000E+00  0.000000000E+00  6.931168696E+02  6.931168696E+02  0.000000000E+00  0.00000E+00  9.000E+00
      21    -1     0     0   501   502  0.000000000E+00  0.000000000E+00 -1.056194174E+02  1.056194174E+02  0.000000000E+00  0.00000E+00  9.000E+00
      -6     2     1     2     0   502 -1.017594142E+01  3.768594501E+01  7.827929905E+01  1.940569766E+02  1.732243669E+02  0.00000E+00  9.000E+00
       6     2     1     2   507     0  7.155043255E+01 -1.061319861E+02  2.501676646E+02  3.297996198E+02  1.726281145E+02  0.00000E+00  9.000E+00
     -24     2     3     3     0     0 -4.831361427E+01  4.707402222E+01  1.021125485E+02  1.443265335E+02  7.650494633E+01  0.00000E+00  9.000E+00
      24     2     4     4     0     0  9.119673932E+01 -3.148409135E+01  1.024900274E+02  1.625257717E+02  8.125470745E+01  0.00000E+00  9.000E+00
     -11     1     6     6     0     0 -4.147589911E+00 -2.889429939E+01  1.382007843E+01  3.229671201E+01  0.000000000E+00  0.00000E+00  9.000E+00
      12     1     6     6     0     0  9.534432923E+01 -2.589791965E+00  8.866994893E+01  1.302290597E+02  1.651812370E-06  0.00000E+00  9.000E+00
      13     1     5     5     0     0 -4.758031758E+00 -1.408888176E+01  5.192309209E+01  5.401058181E+01  0.000000000E+00  0.00000E+00  9.000E+00
     -14     1     5     5     0     0 -4.355558251E+01  6.116290398E+01  5.018945646E+01  9.031595170E+01  1.507891493E-06  0.00000E+00  9.000E+00
       5     1     4     4   511     0 -1.920556283E+01 -7.221985660E+01  1.465254720E+02  1.645504110E+02  4.750000000E+00  0.00000E+00  9.000E+00
      -5     1     3     3     0   512  3.994580203E+01 -7.468700145E+00 -2.313541286E+01  4.700274896E+01  4.750000000E+00  0.00000E+00  9.000E+00
      -2     1     1     2     0   507 -6.137449113E+01  6.844604113E+01  2.590504885E+02  2.748796906E+02  0.000000000E+00  0.00000E+00  9.000E+00
      21     1     3     3   512   502 -1.808129184E+00 -1.919377067E+00 -6.978366366E-01  2.727694162E+00  1.490116119E-08  0.00000E+00  9.000E+00
      21     1     4     4   507   511 -4.407439385E-01 -2.428038190E+00  1.152165286E+00  2.723437077E+00  3.942476677E-08  0.00000E+00  9.000E+00
#rwgt            1          17   61.491870506603640                1     6674075           0       11110           0
<weights>
0.12944E+02
</weights>
</event>
<event>
     15  10001 -1.35503E+01  1.55136E+01 -1.00000E+00  3.34516E-01
       1    -1     0     0   507     0  0.000000000E+00  0.000000000E+00  7.938983590E+01  7.938983590E+01  0.000000000E+00  0.00000E+00  9.000E+00
      21    -1     0     0   511   502  0.000000000E+00  0.000000000E+00 -1.433920009E+03  1.433920009E+03  0.000000000E+00  0.00000E+00  9.000E+00
      -6     2     1     2     0   502 -2.038745700E+02 -1.827841993E+02 -8.278576956E+02  8.889033041E+02  1.727015231E+02  0.00000E+00  9.000E+00
       6     2     1     2   507     0  1.887441187E+02  1.862107531E+02 -5.176135999E+02  6.064417116E+02  1.718980043E+02  0.00000E+00  9.000E+00
     -24     2     3     3     0     0 -7.216351151E+01 -1.141623751E+02 -2.778618981E+02  3.191674920E+02  8.012511030E+01  0.00000E+00  9.000E+00
      24     2     4     4     0     0  1.518594390E+02  1.714949854E+02 -5.101581425E+02  5.649909115E+02  8.050826374E+01  0.00000E+00  9.000E+00
     -11     1     6     6     0     0  1.237760692E+02  8.105886831E+01 -3.012858614E+02  3.356549206E+02  0.000000000E+00  0.00000E+00  9.000E+00
      12     1     6     6     0     0  2.808336980E+01  9.043611704E+01 -2.088722812E+02  2.293359910E+02  2.697398305E-06  0.00000E+00  9.000E+00
      13     1     5     5     0     0 -6.253457746E+01 -1.266235656E+02 -2.526660725E+02  2.894550827E+02  0.000000000E+00  0.00000E+00  9.000E+00
     -14     1     5     5     0     0 -9.628934047E+00  1.246119050E+01 -2.519582560E+01  2.971240932E+01  8.920806376E-07  0.00000E+00  9.000E+00
       5     1     4     4   512     0  3.522500863E+01  1.289885076E+01 -5.304113186E+00  3.818216469E+01  4.750000000E+00  0.00000E+00  9.000E+00
      -5     1     3     3     0   513 -1.097501735E+02 -5.810699392E+01 -4.543012771E+02  4.709922889E+02  4.750000000E+00  0.00000E+00  9.000E+00
       1     1     1     2   511     0  1.513045130E+01 -3.426553765E+00 -9.058877802E+00  1.796482937E+01  0.000000000E+00  0.00000E+00  9.000E+00
      21     1     3     3   513   502 -2.196088499E+01 -1.051483032E+01 -9.569452036E+01  9.874352310E+01  0.000000000E+00  0.00000E+00  9.000E+00
      21     1     4     4   507   512  1.659671119E+00  1.816916956E+00 -2.151344177E+00  3.268635376E+00  6.664001875E-08  0.00000E+00  9.000E+00
#rwgt            1           4 -0.43329783937389516                1     6683053           0       11110           0
<weights>
-.13830E+02
</weights>
</event>
<event>
     15  10001  1.35503E+01  1.84199E+01 -1.00000E+00  3.61813E-01
      21    -1     0     0   512   501  0.000000000E+00  0.000000000E+00  7.230976907E+02  7.230976907E+02  0.000000000E+00  0.00000E+00  9.000E+00
      21    -1     0     0   501   502  0.000000000E+00  0.000000000E+00 -6.815726928E+02  6.815726928E+02  0.000000000E+00  0.00000E+00  9.000E+00
      -6     2     1     2     0   502  3.302084253E+01 -1.549592058E+01 -6.520648921E+02  6.755474370E+02  1.727576817E+02  0.00000E+00  9.000E+00
       6     2     1     2   507     0 -1.484555007E+01  1.848753829E+01  5.392585051E+02  5.736962196E+02  1.943333158E+02  0.00000E+00  9.000E+00
     -24     2     3     3     0     0  2.395368347E+01 -2.462384053E+01 -1.460549220E+02  1.693216498E+02  7.847081227E+01  0.00000E+00  9.000E+00
      24     2     4     4     0     0 -4.907654866E+01  3.464629888E+00  5.246497530E+02  5.330983509E+02  8.072160244E+01  0.00000E+00  9.000E+00
     -11     1     6     6     0     0 -2.146384688E+01 -1.259887778E+01  3.814764174E+01  4.554855667E+01  0.000000000E+00  0.00000E+00  9.000E+00
      12     1     6     6     0     0 -2.761270178E+01  1.606350767E+01  4.865021113E+02  4.875497942E+02  1.078959322E-05  0.00000E+00  9.000E+00
      13     1     5     5     0     0 -2.438328099E+01  2.166351888E+00 -1.974224701E+01  3.144827164E+01  0.000000000E+00  0.00000E+00  9.000E+00
     -14     1     5     5     0     0  4.833696446E+01 -2.679019242E+01 -1.263126750E+02  1.378733781E+02  4.046097457E-06  0.00000E+00  9.000E+00
       5     1     4     4   513     0  3.175732775E+01  1.434205682E+01  1.266467850E+01  3.737885821E+01  4.750000000E+00  0.00000E+00  9.000E+00
      -5     1     3     3     0   511  6.631591435E+00  9.081830464E+00 -4.445095853E+02  4.446771768E+02  4.750000000E+00  0.00000E+00  9.000E+00
      21     1     1     2   512   507 -1.817529246E+01 -2.991617708E+00  1.543313850E+02  1.554267269E+02  5.394796609E-06  0.00000E+00  9.000E+00
      21     1     3     3   511   502  2.435567626E+00  4.608948360E-02 -6.150038488E+01  6.154861050E+01  0.000000000E+00  0.00000E+00  9.000E+00
      21     1     4     4   507   513  2.473670839E+00  6.808515808E-01  1.944073530E+00  3.219010436E+00  8.940696716E-08  0.00000E+00  9.000E+00
#rwgt            1          17   8628.9085105134563                1     6687677           0       11110           0
<weights>
0.13470E+02
</weights>
</event>
<event>
     15  10001  1.35503E+01  1.07520E+02 -1.00000E+00  2.16692E-01
      21    -1     0     0   502   501  0.000000000E+00  0.000000000E+00  6.841353081E+02  6.841353081E+02  0.000000000E+00  0.00000E+00  9.000E+00
      21    -1     0     0   507   511  0.000000000E+00  0.000000000E+00 -3.343164108E+02  3.343164108E+02  0.000000000E+00  0.00000E+00  9.000E+00
      -6     2     1     2     0   501  2.296331347E+02 -1.257300481E+01  4.485884501E+02  5.330515604E+02  1.732712077E+02  0.00000E+00  9.000E+00
       6     2     1     2   507     0 -1.226437793E+02  2.324129200E+01  1.162090925E+02  2.450330384E+02  1.759402811E+02  0.00000E+00  9.000E+00
     -24     2     3     3     0     0  2.131473188E+02 -4.315042962E+01  3.082019547E+02  3.860119779E+02  8.199428679E+01  0.00000E+00  9.000E+00
      24     2     4     4     0     0 -8.729139591E+01 -2.657967990E+01  8.575103805E+00  1.209628026E+02  7.894428429E+01  0.00000E+00  9.000E+00
     -11     1     6     6     0     0 -7.728656196E+01  4.964909446E+00 -1.681674023E+01  7.925065133E+01  0.000000000E+00  0.00000E+00  9.000E+00
      12     1     6     6     0     0 -1.000483395E+01 -3.154458935E+01  2.539184403E+01  4.171215126E+01  8.920806376E-07  0.00000E+00  9.000E+00
      13     1     5     5     0     0  1.848708012E+02 -3.248718751E+01  3.013455973E+02  3.550236605E+02  0.000000000E+00  0.00000E+00  9.000E+00
     -14     1     5     5     0     0  2.827651754E+01 -1.066324211E+01  6.856357469E+00  3.098831739E+01  4.214684851E-07  0.00000E+00  9.000E+00
       5     1     4     4   514     0 -3.557711403E+01  4.899807661E+01  1.068755523E+02  1.229287954E+02  4.750000000E+00  0.00000E+00  9.000E+00
      -5     1     3     3     0   512  1.495269831E+01  3.229671706E+01  1.402041555E+02  1.447288114E+02  4.750000000E+00  0.00000E+00  9.000E+00
      21     1     1     2   502   511 -1.069893554E+02 -1.066828719E+01 -2.149786453E+02  2.403671202E+02  6.607249480E-06  0.00000E+00  9.000E+00
      21     1     3     3   512   501  1.533117574E+00 -1.719292250E+00  1.823398729E-01  2.310771119E+00  7.840829037E-08  0.00000E+00  9.000E+00
      21     1     4     4   507   514  2.247306879E-01  8.228952996E-01  7.584364011E-01  1.141440463E+00  1.490116119E-08  0.00000E+00  9.000E+00
#rwgt            1          17   36.332424769406053                1     6700961           0       11110           0
<weights>
0.13175E+02
</weights>
</event>
<event>
     15  10001  1.35503E+01  1.23996E+01 -1.00000E+00  2.72314E-01
      21    -1     0     0   502   512  0.000000000E+00  0.000000000E+00  3.545151238E+02  3.545151238E+02  0.000000000E+00  0.00000E+00  9.000E+00
      21    -1     0     0   507   502  0.000000000E+00  0.000000000E+00 -2.914826661E+02  2.914826661E+02  0.000000000E+00  0.00000E+00  9.000E+00
      -6     2     1     2     0   501 -2.301512886E+01  3.608231870E+01  2.919059912E+02  3.416138716E+02  1.722187553E+02  0.00000E+00  9.000E+00
       6     2     1     2   507     0  1.065755562E+01 -3.506172639E+01 -1.728353759E+02  2.469903094E+02  1.725955899E+02  0.00000E+00  9.000E+00
     -24     2     3     3     0     0 -4.366839363E+00 -4.920782738E+01  1.604810856E+02  1.833957762E+02  7.375196483E+01  0.00000E+00  9.000E+00
      24     2     4     4     0     0  2.241061901E+01 -6.578413452E+01 -4.478398889E+01  1.145501030E+02  7.928639377E+01  0.00000E+00  9.000E+00
     -11     1     6     6     0     0 -2.657573728E+00 -5.636956424E+01 -6.111577482E+01  8.318490489E+01  0.000000000E+00  0.00000E+00  9.000E+00
      12     1     6     6     0     0  2.506819274E+01 -9.414570282E+00  1.633178592E+01  3.136519811E+01  5.840038640E-07  0.00000E+00  9.000E+00
      13     1     5     5     0     0  9.842668251E+00  1.880478810E+00 -3.839317098E+00  1.073101461E+01  0.000000000E+00  0.00000E+00  9.000E+00
     -14     1     5     5     0     0 -1.420950761E+01 -5.108830619E+01  1.643204027E+02  1.726647616E+02  1.907348633E-06  0.00000E+00  9.000E+00
       5     1     4     4   513     0 -1.158838384E+01  2.573363361E+01 -1.136588990E+02  1.172067334E+02  4.750000000E+00  0.00000E+00  9.000E+00
      -5     1     3     3     0   511 -1.889335957E+01  7.650554346E+01  1.135220673E+02  1.382746523E+02  4.750000000E+00  0.00000E+00  9.000E+00
      21     1     1     2   501   512  1.235757324E+01 -1.020592313E+00 -5.603815766E+01  5.739360887E+01  9.536743164E-07  0.00000E+00  9.000E+00
      21     1     3     3   511   501  2.450700730E-01  8.784602629E+00  1.790283833E+01  1.994344311E+01  3.371747881E-07  0.00000E+00  9.000E+00
      21     1     4     4   507   513 -1.646795604E-01  4.988774516E+00 -1.439248794E+01  1.523347300E+01  1.685873940E-07  0.00000E+00  9.000E+00
#rwgt            1          17   30.015282962242463                1     6709299           0       11110           0
<weights>
0.64704E+01
</weights>
</event>
<event>
     15  10001  1.35503E+01  1.24976E+01 -1.00000E+00  3.05183E-01
      21    -1     0     0   502   501  0.000000000E+00  0.000000000E+00  1.958814895E+02  1.958814895E+02  0.000000000E+00  0.00000E+00  9.000E+00
      21    -1     0     0   511   502  0.000000000E+00  0.000000000E+00 -2.066247694E+02  2.066247694E+02  0.000000000E+00  0.00000E+00  9.000E+00
      -6     2     1     2     0   501  3.626665186E+01 -7.892984058E+00  3.049401718E+01  1.765960189E+02  1.699373402E+02  0.00000E+00  9.000E+00
       6     2     1     2   507     0 -4.802450101E+01  1.212875475E+01  2.060931751E+00  1.808444504E+02  1.739166709E+02  0.00000E+00  9.000E+00
     -24     2     3     3     0     0 -1.474721022E+01 -3.554703475E+01 -2.940071907E+01  9.120470686E+01  7.728404999E+01  0.00000E+00  9.000E+00
      24     2     4     4     0     0  3.322860440E+01  1.181852321E+01 -2.424290664E+01  9.100258031E+01  8.031147776E+01  0.00000E+00  9.000E+00
     -11     1     6     6     0     0 -5.149248123E+00 -3.014829708E+01 -1.184143986E+01  3.279716864E+01  0.000000000E+00  0.00000E+00  9.000E+00
      12     1     6     6     0     0  3.837785252E+01  4.196682029E+01 -1.240146678E+01  5.820541167E+01  1.599360450E-06  0.00000E+00  9.000E+00
      13     1     5     5     0     0  2.524813724E+01 -2.086629821E+01 -3.534367047E+01  4.818761125E+01  0.000000000E+00  0.00000E+00  9.000E+00
     -14     1     5     5     0     0 -3.999534746E+01 -1.468073654E+01  5.942951400E+00  4.301709562E+01  1.340773330E-06  0.00000E+00  9.000E+00
       5     1     4     4   512     0 -8.070351367E+01 -4.576288364E+00  2.440257110E+01  8.456977895E+01  4.750000000E+00  0.00000E+00  9.000E+00
      -5     1     3     3     0   514  4.975250211E+01  2.801039210E+01  6.099280579E+01  8.368141006E+01  4.750000000E+00  0.00000E+00  9.000E+00
      21     1     1     2   511   507  1.175784915E+01 -4.235770690E+00 -4.329822880E+01  4.506578954E+01  8.259061849E-07  0.00000E+00  9.000E+00
      21     1     4     4   507   512 -5.495917306E-01  4.886519900E+00  1.901267286E+00  5.272091150E+00  1.591008641E-07  0.00000E+00  9.000E+00
      21     1     3     3   514   501  1.261359973E+00 -3.563414100E-01 -1.098069541E+00  1.709902014E+00  3.332000937E-08  0.00000E+00  9.000E+00
#rwgt            1          17   41.688670682472207                1     6716841           0       11011           0
<weights>
0.17802E+02
</weights>
</event>
<event>
     15  10001  1.35503E+01  4.50977E+01 -1.00000E+00  1.78092E-01
       2    -1     0     0   502     0  0.000000000E+00  0.000000000E+00  1.261814748E+03  1.261814748E+03  0.000000000E+00  0.00000E+00  9.000E+00
      21    -1     0     0   507   502  0.000000000E+00  0.000000000E+00 -1.544365883E+02  1.544365883E+02  0.000000000E+00  0.00000E+00  9.000E+00
      -6     2     1     2     0   501  8.901223000E+01 -3.698885475E+01  4.868706551E+02  5.256784910E+02  1.732151514E+02  0.00000E+00  9.000E+00
       6     2     1     2   507     0 -5.877937643E+01  7.045198753E+01 -6.327354609E+01  2.053062314E+02  1.724198637E+02  0.00000E+00  9.000E+00
     -24     2     3     3     0     0  5.570640930E+01  4.222269218E+01  2.444218744E+02  2.680769311E+02  8.507190237E+01  0.00000E+00  9.000E+00
      24     2     4     4     0     0 -7.683034586E+01  3.200084338E+01 -9.252081162E+01  1.483472707E+02  8.074562608E+01  0.00000E+00  9.000E+00
     -11     1     6     6     0     0 -2.361622373E+01 -2.188101619E+01 -4.949914065E+00  3.257309537E+01  0.000000000E+00  0.00000E+00  9.000E+00
      12     1     6     6     0     0 -5.321412213E+01  5.388185957E+01 -8.757089755E+01  1.157741754E+02  4.264961200E-06  0.00000E+00  9.000E+00
      13     1     5     5     0     0  1.855221205E+01  1.273708888E+01  3.797232876E+00  2.282185318E+01  0.000000000E+00  0.00000E+00  9.000E+00
     -14     1     5     5     0     0  3.715419725E+01  2.948560330E+01  2.406246415E+02  2.452550780E+02  6.607249480E-06  0.00000E+00  9.000E+00
       5     1     4     4   512     0  1.801874485E+01  3.970176641E+01  2.101517167E+01  4.863234893E+01  4.750000000E+00  0.00000E+00  9.000E+00
      -5     1     3     3     0   511  1.982000577E+01 -3.559928139E+01  1.028586512E+02  1.107366520E+02  4.750000000E+00  0.00000E+00  9.000E+00
       2     1     1     2   501     0 -3.023285357E+01 -3.346313278E+01  6.837810511E+02  6.852666142E+02  0.000000000E+00  0.00000E+00  9.000E+00
      21     1     3     3   511   501  1.348581493E+01 -4.361226554E+01  1.395901295E+02  1.468649079E+02  1.907348633E-06  0.00000E+00  9.000E+00
      21     1     4     4   507   512  3.222457863E-02 -1.250622257E+00  8.232093851E+00  8.326611774E+00  3.153981341E-07  0.00000E+00  9.000E+00
#rwgt            1          17   24.051072052277306                1     6723011           0       11110           0
<weights>
0.16410E+02
</weights>
</event>
<event>
     13  10001  1.35503E+01  1.23335E+02 -1.00000E+00  1.19865E-01
      21    -1     0     0   507   501  0.000000000E+00  0.000000000E+00  4.422360496E+02  4.422360496E+02  0.000000000E+00  0.00000E+00  9.000E+00
      21    -1     0     0   501   511  0.000000000E+00  0.000000000E+00 -1.782865760E+02  1.782865760E+02  0.000000000E+00  0.00000E+00  9.000E+00
      -6     2     1     2     0   502 -1.168246560E+02  1.964417486E+00  5.476090436E+01  2.151720110E+02  1.721870450E+02  0.00000E+00  9.000E+00
       6     2     1     2   507     0  2.365865762E+01  7.885384625E+01  2.072510384E+02  2.820005071E+02  1.726083195E+02  0.00000E+00  9.000E+00
     -24     2     3     3     0     0 -6.063161170E+01  5.020360197E+01 -1.423538276E+01  1.138422163E+02  8.099882780E+01  0.00000E+00  9.000E+00
      24     2     4     4     0     0 -4.001204465E+01  1.591136488E+01  1.531375025E+02  1.772792029E+02  7.824759336E+01  0.00000E+00  9.000E+00
     -11     1     6     6     0     0 -1.352768089E+01 -3.108398887E+01  7.526791234E+01  8.254981007E+01  0.000000000E+00  0.00000E+00  9.000E+00
      12     1     6     6     0     0 -2.648436376E+01  4.699535376E+01  7.786959015E+01  9.472939285E+01  9.536743164E-07  0.00000E+00  9.000E+00
      13     1     5     5     0     0 -7.237723309E+01  4.963266858E+01  8.575833741E+00  8.817828862E+01  0.000000000E+00  0.00000E+00  9.000E+00
     -14     1     5     5     0     0  1.174562139E+01  5.709333928E-01 -2.281121650E+01  2.566392770E+01  8.920806376E-07  0.00000E+00  9.000E+00
       5     1     4     4   507     0  6.367070227E+01  6.294248136E+01  5.411353586E+01  1.047213042E+02  4.750000000E+00  0.00000E+00  9.000E+00
      -5     1     3     3     0   502 -5.619304428E+01 -4.823918449E+01  6.899628712E+01  1.013297946E+02  4.750000000E+00  0.00000E+00  9.000E+00
      21     1     1     2   502   511  9.316599836E+01 -8.081826373E+01  1.937530929E+00  1.233501075E+02  1.260183722E-06  0.00000E+00  9.000E+00
#rwgt            2         113   1.2396588777632438                1     6728762           0           1           0
<weights>
0.13550E+02
</weights>
</event>
<event>
     15  10001 -1.35503E+01  9.69838E+00 -1.00000E+00  2.16169E-01
      21    -1     0     0   507   501  0.000000000E+00  0.000000000E+00  1.759147803E+02  1.759147803E+02  0.000000000E+00  0.00000E+00  9.000E+00
       1    -1     0     0   501     0  0.000000000E+00  0.000000000E+00 -1.569490221E+03  1.569490221E+03  0.000000000E+00  0.00000E+00  9.000E+00
      -6     2     1     2     0   502 -5.723582492E+01 -3.330986940E+00 -5.485768644E+02  5.778035872E+02  1.721434694E+02  0.00000E+00  9.000E+00
       6     2     1     2   507     0  4.755287827E+01  2.783997852E+00  1.117205916E+02  2.108330905E+02  1.723370958E+02  0.00000E+00  9.000E+00
     -24     2     3     3     0     0 -9.807759435E+01  7.766783805E+00 -4.668727376E+02  4.846807837E+02  8.523949532E+01  0.00000E+00  9.000E+00
      24     2     4     4     0     0  5.506222572E+01  5.579747367E+01  3.677245118E+01  1.180893488E+02  8.029741190E+01  0.00000E+00  9.000E+00
     -11     1     6     6     0     0  2.772629138E+01  8.900589050E+00 -2.317587077E+01  3.721677988E+01  0.000000000E+00  0.00000E+00  9.000E+00
      12     1     6     6     0     0  2.733593435E+01  4.689688462E+01  5.994832195E+01  8.087256888E+01  5.394796609E-06  0.00000E+00  9.000E+00
      13     1     5     5     0     0 -4.651750756E+01 -3.363979796E+01 -1.423589490E+02  1.534978335E+02  0.000000000E+00  0.00000E+00  9.000E+00
     -14     1     5     5     0     0 -5.156008679E+01  4.140658176E+01 -3.245137886E+02  3.311829502E+02  5.394796609E-06  0.00000E+00  9.000E+00
       5     1     4     4   511     0 -9.102481247E+00 -5.051813202E+01  6.935469534E+01  8.641512075E+01  4.750000000E+00  0.00000E+00  9.000E+00
      -5     1     3     3     0   512  3.128008882E+01 -1.319950388E+01 -5.653672105E+01  6.611833473E+01  4.750000000E+00  0.00000E+00  9.000E+00
       1     1     1     2   502     0  9.682946658E+00  5.469890887E-01 -9.567191680E+02  9.567683236E+02  0.000000000E+00  0.00000E+00  9.000E+00
      21     1     3     3   512   502  9.561680599E+00  2.101733133E+00 -2.516740575E+01  2.700446871E+01  3.371747881E-07  0.00000E+00  9.000E+00
      21     1     4     4   507   511  1.593133789E+00 -2.495343796E+00  5.593445101E+00  6.328621021E+00  2.064765462E-07  0.00000E+00  9.000E+00
#rwgt            1          17  -22.721348269676181                1     6729777           0       11110           0
<weights>
-.12908E+02
</weights>
</event>
<event>
     14  10001  1.35503E+01  3.78035E+01 -1.00000E+00  5.13037E-01
       2    -1     0     0   502     0  0.000000000E+00  0.000000000E+00  2.093131174E+03  2.093131174E+03  0.000000000E+00  0.00000E+00  9.000E+00
      21    -1     0     0   507   502  0.000000000E+00  0.000000000E+00 -8.912072062E+01  8.912072062E+01  0.000000000E+00  0.00000E+00  9.000E+00
      -6     2     1     2     0   501 -1.393560980E+02  1.092599084E+01  2.663800658E+02  3.432982974E+02  1.653961373E+02  0.00000E+00  9.000E+00
       6     2     1     2   507     0  1.065198893E+02  7.805932506E+00  1.539857653E+02  2.548578327E+02  1.727237087E+02  0.00000E+00  9.000E+00
     -24     2     3     3     0     0 -1.515085804E+02 -1.170007184E+01  1.635917026E+02  2.369174985E+02  7.922066847E+01  0.00000E+00  9.000E+00
      24     2     4     4     0     0  1.145323434E+00 -2.018671197E+01  1.101217876E+02  1.372398140E+02  7.936714275E+01  0.00000E+00  9.000E+00
     -11     1     6     6     0     0  1.892249856E+01  1.528350281E+00  1.073769135E+02  1.090421861E+02  0.000000000E+00  0.00000E+00  9.000E+00
      12     1     6     6     0     0 -1.777717513E+01 -2.171506225E+01  2.744874067E+00  2.819762787E+01  1.067905001E-06  0.00000E+00  9.000E+00
      13     1     5     5     0     0 -9.611497836E+01 -1.307034104E+00  1.512682543E+02  1.792257854E+02  0.000000000E+00  0.00000E+00  9.000E+00
     -14     1     5     5     0     0 -5.539360206E+01 -1.039303774E+01  1.232344836E+01  5.769171311E+01  2.780414531E-06  0.00000E+00  9.000E+00
       5     1     4     4   507     0  1.053745658E+02  2.799264447E+01  4.386397775E+01  1.176180186E+02  4.750000000E+00  0.00000E+00  9.000E+00
      -5     1     3     3     0   511  1.317373409E+01  2.230503046E+01  9.836657086E+01  1.018312644E+02  4.750000000E+00  0.00000E+00  9.000E+00
       2     1     1     2   501     0  3.283620876E+01 -1.873192335E+01  1.583644622E+03  1.584095765E+03  0.000000000E+00  0.00000E+00  9.000E+00
      21     1     3     3   511   501 -1.021251692E+00  3.210322247E-01  4.421792272E+00  4.549534439E+00  8.429369702E-08  0.00000E+00  9.000E+00
#rwgt            1          17   17.036036480843027                1     6742904           0         111           0
<weights>
0.11852E+02
</weights>
</event>
<event>
     15  10001 -1.35503E+01  1.00021E+02 -1.00000E+00  4.44828E-01
      21    -1     0     0   507   501  0.000000000E+00  0.000000000E+00  2.144478483E+02  2.144478483E+02  0.000000000E+00  0.00000E+00  9.000E+00
       2    -1     0     0   501     0  0.000000000E+00  0.000000000E+00 -2.663669577E+03  2.663669577E+03  0.000000000E+00  0.00000E+00  9.000E+00
      -6     2     1     2     0   502 -3.691630825E+02 -1.011265629E+02 -6.601744558E+02  7.823456571E+02  1.724136070E+02  0.00000E+00  9.000E+00
       6     2     1     2   507     0  4.364198230E+02  2.709475951E+01 -2.122241171E+02  5.157795397E+02  1.726066913E+02  0.00000E+00  9.000E+00
     -24     2     3     3     0     0 -3.555054056E+02 -1.261398616E+02 -6.329514448E+02  7.416195021E+02  8.412250805E+01  0.00000E+00  9.000E+00
      24     2     4     4     0     0  1.989266650E+02 -2.853182545E+01 -4.905805582E+01  2.221834765E+02  8.107355485E+01  0.00000E+00  9.000E+00
     -11     1     6     6     0     0  1.352587679E+02  1.635233278E+01 -4.744445637E+01  1.442681861E+02  0.000000000E+00  0.00000E+00  9.000E+00
      12     1     6     6     0     0  6.366789707E+01 -4.488415823E+01 -1.613599452E+00  7.791529041E+01  2.876966231E-06  0.00000E+00  9.000E+00
      13     1     5     5     0     0 -2.626764490E+02 -1.003865484E+02 -5.340119238E+02  6.035272245E+02  0.000000000E+00  0.00000E+00  9.000E+00
     -14     1     5     5     0     0 -9.282895657E+01 -2.575331315E+01 -9.893952100E+01  1.380922776E+02  2.336015456E-06  0.00000E+00  9.000E+00
       5     1     4     4   512     0  2.296946071E+02  5.262340509E+01 -1.567132405E+02  2.830378730E+02  4.750000000E+00  0.00000E+00  9.000E+00
      -5     1     3     3     0   513 -1.386258532E+01  2.567417234E+01 -2.626387347E+01  3.954349436E+01  4.750000000E+00  0.00000E+00  9.000E+00
       2     1     1     2   502     0 -6.725674046E+01  7.403180334E+01 -1.576823156E+03  1.579992228E+03  0.000000000E+00  0.00000E+00  9.000E+00
      21     1     4     4   507   512  7.798550936E+00  3.003179872E+00 -6.452820751E+00  1.055819027E+01  2.665600750E-07  0.00000E+00  9.000E+00
      21     1     3     3   513   502  2.049083845E-01 -6.608735916E-01 -9.591375080E-01  1.182660606E+00  4.828528090E-08  0.00000E+00  9.000E+00
#rwgt            1          17  -4.6642976762461128                1     6753544           0       11011           0
<weights>
-.78185E+01
</weights>
</event>
<event>
     15  10001  1.35503E+01  6.04567E+01 -1.00000E+00  3.44639E-01
      21    -1     0     0   507   511  0.000000000E+00  0.000000000E+00  1.225120188E+02  1.225120188E+02  0.000000000E+00  0.00000E+00  9.000E+00
      21    -1     0     0   501   502  0.000000000E+00  0.000000000E+00 -6.545582573E+02  6.545582573E+02  0.000000000E+00  0.00000E+00  9.000E+00
      -6     2     1     2     0   502 -6.504609227E+01  3.107531337E+01 -4.273132679E+02  4.660942031E+02  1.716115030E+02  0.00000E+00  9.000E+00
       6     2     1     2   507     0  1.057391329E+02  1.363592749E+01 -1.345813862E+02  2.435524382E+02  1.727395088E+02  0.00000E+00  9.000E+00
     -24     2     3     3     0     0 -6.805862479E+01 -2.271241641E+01 -3.756334640E+02  3.906996984E+02  7.998702899E+01  0.00000E+00  9.000E+00
      24     2     4     4     0     0  1.072654279E+02 -4.204685562E+01 -7.861743284E+01  1.619724721E+02  8.234422198E+01  0.00000E+00  9.000E+00
     -11     1     6     6     0     0  4.859474384E+01 -2.958699002E+01  7.120879559E+00  5.733712614E+01  0.000000000E+00  0.00000E+00  9.000E+00
      12     1     6     6     0     0  5.867068401E+01 -1.245986560E+01 -8.573831240E+01  1.046353460E+02  2.336015456E-06  0.00000E+00  9.000E+00
      13     1     5     5     0     0  1.101153628E+01  1.589312267E+01 -7.518883754E+01  7.763508594E+01  0.000000000E+00  0.00000E+00  9.000E+00
     -14     1     5     5     0     0 -7.907016106E+01 -3.860553908E+01 -3.004446265E+02  3.130646125E+02  5.394796609E-06  0.00000E+00  9.000E+00
       5     1     4     4   513     0 -3.495993028E-01  5.721821420E+01 -5.435709046E+01  7.906517590E+01  4.750000000E+00  0.00000E+00  9.000E+00
      -5     1     3     3     0   512  1.986710629E+00  5.057188427E+01 -4.491147245E+01  6.783115328E+01  4.750000000E+00  0.00000E+00  9.000E+00
      21     1     1     2   501   511 -4.069304063E+01 -4.471124086E+01  2.984841565E+01  6.742363482E+01  7.539457465E-07  0.00000E+00  9.000E+00
      21     1     4     4   507   513 -1.176695652E+00 -1.535431095E+00 -1.606862938E+00  2.514790211E+00  8.940696716E-08  0.00000E+00  9.000E+00
      21     1     3     3   512   502  1.025821883E+00  3.215845514E+00 -6.768331489E+00  7.563351377E+00  1.460009660E-07  0.00000E+00  9.000E+00
#rwgt            1          17   11.464178812873978                1     6763708           0       11011           0
<weights>
0.14893E+02
</weights>
</event>
<event>
     15  10001 -1.35503E+01  1.11277E+01 -1.00000E+00  2.74358E-01
      -2    -1     0     0     0   511  0.000000000E+00  0.000000000E+00  3.200559105E+02  3.200559105E+02  0.000000000E+00  0.00000E+00  9.000E+00
       2    -1     0     0   507     0  0.000000000E+00  0.000000000E+00 -2.330828341E+03  2.330828341E+03  0.000000000E+00  0.00000E+00  9.000E+00
      -6     2     1     2     0   501  8.603543538E+01 -8.320271984E+02 -9.251745958E+02  1.259752745E+03  1.770807451E+02  0.00000E+00  9.000E+00
       6     2     1     2   507     0 -8.252617647E+01  8.214673223E+02 -1.090799136E+03  1.378848208E+03  1.725123012E+02  0.00000E+00  9.000E+00
     -24     2     3     3     0     0  1.089937587E+02 -4.107656725E+02 -4.427570937E+02  6.187303138E+02  7.864655143E+01  0.00000E+00  9.000E+00
      24     2     4     4     0     0 -6.831654104E+01  6.164990897E+02 -7.519762957E+02  9.780195897E+02  7.947132276E+01  0.00000E+00  9.000E+00
     -11     1     6     6     0     0 -2.619370840E+01  7.231569590E+01 -1.248207611E+02  1.466147763E+02  0.000000000E+00  0.00000E+00  9.000E+00
      12     1     6     6     0     0 -4.212283264E+01  5.441833938E+02 -6.271555346E+02  8.314048134E+02  1.078959322E-05  0.00000E+00  9.000E+00
      13     1     5     5     0     0  7.223305279E+00 -6.124621394E+01 -3.066176855E+01  6.887248298E+01  0.000000000E+00  0.00000E+00  9.000E+00
     -14     1     5     5     0     0  1.017704534E+02 -3.495194585E+02 -4.120953251E+02  5.498578308E+02  1.525878906E-05  0.00000E+00  9.000E+00
       5     1     4     4   512     0  2.025673485E+01  4.309977727E+01 -9.115602701E+01  1.029558637E+02  4.750000000E+00  0.00000E+00  9.000E+00
      -5     1     3     3     0   513 -2.008114393E+01 -4.028202176E+02 -4.639099351E+02  6.147376436E+02  4.750000000E+00  0.00000E+00  9.000E+00
      21     1     4     4   507   512 -3.446637028E+01  1.618684553E+02 -2.476668134E+02  2.978727547E+02  6.031565972E-06  0.00000E+00  9.000E+00
      21     1     1     2   501   511 -3.509258907E+00  1.055987618E+01  5.201301544E+00  1.228329845E+01  1.032382731E-07  0.00000E+00  9.000E+00
      21     1     3     3   513   501 -2.877179372E+00 -1.844130839E+01 -1.850756694E+01  2.628478743E+01  2.384185791E-07  0.00000E+00  9.000E+00
#rwgt            1           6  -6.5640263911914163                1     6770513           0      100111           0
<weights>
-.16584E+02
</weights>
</event>
<event>
     13  10001  1.35503E+01  5.23766E+01 -1.00000E+00  7.51828E-01
      21    -1     0     0   511   501  0.000000000E+00  0.000000000E+00  6.058914818E+02  6.058914818E+02  0.000000000E+00  0.00000E+00  9.000E+00
      21    -1     0     0   501   502  0.000000000E+00  0.000000000E+00 -1.968450676E+02  1.968450676E+02  0.000000000E+00  0.00000E+00  9.000E+00
      -6     2     1     2     0   502 -1.783498313E+02 -1.364672964E+02  2.481277857E+02  3.767294601E+02  1.729904702E+02  0.00000E+00  9.000E+00
       6     2     1     2   507     0  2.295110301E+02  1.252495594E+02  1.898969174E+02  3.661485300E+02  1.721660294E+02  0.00000E+00  9.000E+00
     -24     2     3     3     0     0 -1.174871987E+02 -2.204302625E+01  1.803250669E+02  2.303841670E+02  7.918710605E+01  0.00000E+00  9.000E+00
      24     2     4     4     0     0  7.936120144E+01  9.563778166E+01  1.443356715E+02  2.063980431E+02  7.951465612E+01  0.00000E+00  9.000E+00
     -11     1     6     6     0     0  6.516950907E+01  2.950881823E+01  1.082106696E+02  1.297204082E+02  0.000000000E+00  0.00000E+00  9.000E+00
      12     1     6     6     0     0  1.419169238E+01  6.612896343E+01  3.612500184E+01  7.667763490E+01  1.261592536E-06  0.00000E+00  9.000E+00
      13     1     5     5     0     0 -1.667306685E+01 -2.185973061E+01  4.715403677E+00  2.789397806E+01  0.000000000E+00  0.00000E+00  9.000E+00
     -14     1     5     5     0     0 -1.008141319E+02 -1.832956471E-01  1.756096632E+02  2.024901889E+02  0.000000000E+00  0.00000E+00  9.000E+00
       5     1     4     4   507     0  1.501498287E+02  2.961177770E+01  4.556124596E+01  1.597504869E+02  4.750000000E+00  0.00000E+00  9.000E+00
      -5     1     3     3     0   502 -6.086263257E+01 -1.144242702E+02  6.780271874E+01  1.463452931E+02  4.750000000E+00  0.00000E+00  9.000E+00
      21     1     1     2   511   507 -5.116119886E+01  1.121773705E+01 -2.897828895E+01  5.985855932E+01  8.920806376E-07  0.00000E+00  9.000E+00
#rwgt            1          17   19.623115221903074                1     6771969           0           1           0
<weights>
0.14420E+02
</weights>
</event>
<event>
     14  10001  1.35503E+01  2.22371E+01 -1.00000E+00  7.51060E-01
      21    -1     0     0   507   512  0.000000000E+00  0.000000000E+00  4.215905131E+02  4.215905131E+02  0.000000000E+00  0.00000E+00  9.000E+00
      21    -1     0     0   501   502  0.000000000E+00  0.000000000E+00 -1.540113284E+02  1.540113284E+02  0.000000000E+00  0.00000E+00  9.000E+00
      -6     2     1     2     0   502  2.899282430E+01 -5.740051672E+01 -4.903902100E+00  1.849822363E+02  1.733752471E+02  0.00000E+00  9.000E+00
       6     2     1     2   507     0 -5.057016328E+01  6.277723625E+01  9.442935668E+01  2.111826483E+02  1.708299878E+02  0.00000E+00  9.000E+00
     -24     2     3     3     0     0 -2.500606817E+01  1.322873533E+01 -3.438816024E+01  9.119388092E+01  7.958313558E+01  0.00000E+00  9.000E+00
      24     2     4     4     0     0 -3.456024711E+01  1.101588116E+02  6.716490394E+01  1.537813810E+02  7.621164199E+01  0.00000E+00  9.000E+00
     -11     1     6     6     0     0 -4.457782066E+01  3.833585196E+01  6.347184613E+00  5.913633733E+01  0.000000000E+00  0.00000E+00  9.000E+00
      12     1     6     6     0     0  1.001757355E+01  7.182295963E+01  6.081771933E+01  9.464504369E+01  1.348699152E-06  0.00000E+00  9.000E+00
      13     1     5     5     0     0  9.681599194E+00 -6.520400806E+00  2.034273108E+01  2.345369262E+01  0.000000000E+00  0.00000E+00  9.000E+00
     -14     1     5     5     0     0 -3.468766736E+01  1.974913614E+01 -5.473089132E+01  6.774018829E+01  6.743495762E-07  0.00000E+00  9.000E+00
       5     1     4     4   513     0 -1.611268706E+01 -4.563050870E+01  2.702817089E+01  5.563134485E+01  4.750000000E+00  0.00000E+00  9.000E+00
      -5     1     3     3     0   502  5.399889247E+01 -7.062925205E+01  2.948425814E+01  9.378835541E+01  4.750000000E+00  0.00000E+00  9.000E+00
      21     1     1     2   501   512  2.157733897E+01 -5.376719533E+00  1.780537302E+02  1.794369569E+02  1.907348633E-06  0.00000E+00  9.000E+00
      21     1     4     4   507   513  1.027708930E-01 -1.751066638E+00  2.362818481E-01  1.769922410E+00  3.404108227E-08  0.00000E+00  9.000E+00
#rwgt            1          17   10.471818978119941                1     6786706           0         110           0
<weights>
0.14888E+02
</weights>
</event>
<event>
     14  10001  1.35503E+01  1.71006E+01 -1.00000E+00  6.71300E-01
       1    -1     0     0   511     0  0.000000000E+00  0.000000000E+00  2.654695770E+02  2.654695770E+02  0.000000000E+00  0.00000E+00  9.000E+00
      -1    -1     0     0     0   502  0.000000000E+00  0.000000000E+00 -4.035970582E+02  4.035970582E+02  0.000000000E+00  0.00000E+00  9.000E+00
      -6     2     1     2     0   507  9.509195537E+01  2.103565756E+01 -3.299479593E+02  3.846243256E+02  1.720035961E+02  0.00000E+00  9.000E+00
       6     2     1     2   507     0 -7.817934061E+01 -2.356406451E+01  1.860796071E+02  2.664038236E+02  1.722733369E+02  0.00000E+00  9.000E+00
     -24     2     3     3     0     0  7.092833075E+01 -4.383885396E+01 -1.333172191E+02  1.761086343E+02  7.929752168E+01  0.00000E+00  9.000E+00
      24     2     4     4     0     0 -4.843016884E+01  5.275470124E+01  9.143620869E+01  1.409116818E+02  7.979337091E+01  0.00000E+00  9.000E+00
     -11     1     6     6     0     0  3.365914171E+00  4.652283429E+01  1.624055193E+01  4.939087989E+01  0.000000000E+00  0.00000E+00  9.000E+00
      12     1     6     6     0     0 -5.179608301E+01  6.231866944E+00  7.519565676E+01  9.152080188E+01  9.536743164E-07  0.00000E+00  9.000E+00
      13     1     5     5     0     0  3.979449349E+01 -3.397551178E+01 -1.658030462E+01  5.488937615E+01  0.000000000E+00  0.00000E+00  9.000E+00
     -14     1     5     5     0     0  3.113383726E+01 -9.863342177E+00 -1.167369145E+02  1.212192582E+02  1.348699152E-06  0.00000E+00  9.000E+00
       5     1     4     4   512     0 -2.184975129E+01 -5.278693595E+01  7.048109228E+01  9.085163239E+01  4.750000000E+00  0.00000E+00  9.000E+00
      -5     1     3     3     0   507  2.416362462E+01  6.487451152E+01 -1.966307402E+02  2.085156912E+02  4.750000000E+00  0.00000E+00  9.000E+00
      21     1     1     2   511   502 -1.691261476E+01  2.528406951E+00  5.740870996E+00  1.803848607E+01  4.298152060E-07  0.00000E+00  9.000E+00
      21     1     4     4   507   512 -7.899420471E+00 -2.353182980E+01  2.416230614E+01  3.464050946E+01  8.259061849E-07  0.00000E+00  9.000E+00
#rwgt            1           4  0.10090121903490047                1     6798705           0         110           0
<weights>
0.13257E+02
</weights>
</event>
<event>
     14  10001  1.35503E+01  3.45004E+01 -1.00000E+00  2.91635E-01
      21    -1     0     0   502   512  0.000000000E+00  0.000000000E+00  9.127552753E+01  9.127552753E+01  0.000000000E+00  0.00000E+00  9.000E+00
      21    -1     0     0   507   502  0.000000000E+00  0.000000000E+00 -4.551285140E+02  4.551285140E+02  0.000000000E+00  0.00000E+00  9.000E+00
      -6     2     1     2     0   501  4.044083724E+01 -2.159104984E+01 -1.504439953E+02  2.328428184E+02  1.716995853E+02  0.00000E+00  9.000E+00
       6     2     1     2   507     0 -6.107484502E+01 -6.058863323E+00 -2.104185479E+02  2.789314278E+02  1.725106652E+02  0.00000E+00  9.000E+00
     -24     2     3     3     0     0 -3.166743989E+01 -3.757985364E+01 -1.199103136E+02  1.526543080E+02  8.068322186E+01  0.00000E+00  9.000E+00
      24     2     4     4     0     0 -2.036162350E+01 -6.292653068E+01 -1.713239190E+02  1.986665507E+02  7.577710178E+01  0.00000E+00  9.000E+00
     -11     1     6     6     0     0 -4.298406216E+01 -5.016007302E+01 -1.536492649E+02  1.672475983E+02  0.000000000E+00  0.00000E+00  9.000E+00
      12     1     6     6     0     0  2.262243866E+01 -1.276645765E+01 -1.767465415E+01  3.141895242E+01  1.066240300E-06  0.00000E+00  9.000E+00
      13     1     5     5     0     0 -2.688679461E+01  1.945217525E+01 -6.673960074E+01  7.453496598E+01  0.000000000E+00  0.00000E+00  9.000E+00
     -14     1     5     5     0     0 -4.780645283E+00 -5.703202889E+01 -5.317071286E+01  7.811934200E+01  2.336015456E-06  0.00000E+00  9.000E+00
       5     1     4     4   507     0 -4.071322152E+01  5.686766735E+01 -3.909462885E+01  8.026487714E+01  4.750000000E+00  0.00000E+00  9.000E+00
      -5     1     3     3     0   511  4.861562814E+01  9.571149899E+00 -1.966264318E+01  5.351885879E+01  4.750000000E+00  0.00000E+00  9.000E+00
      21     1     1     2   501   512  2.063400778E+01  2.764991316E+01 -2.990443292E+00  3.462979535E+01  4.768371582E-07  0.00000E+00  9.000E+00
      21     1     3     3   511   501  2.349264900E+01  6.417653903E+00 -1.087103854E+01  2.666965162E+01  4.460403188E-07  0.00000E+00  9.000E+00
#rwgt            1          17   23.639839641199320                1     6803471           0         111           0
<weights>
0.14868E+02
</weights>
</event>
<event>
     15  10001  1.35503E+01  4.89842E+01 -1.00000E+00  2.21958E-01
      21    -1     0     0   511   501  0.000000000E+00  0.000000000E+00  2.550844139E+02  2.550844139E+02  0.000000000E+00  0.00000E+00  9.000E+00
      21    -1     0     0   507   502  0.000000000E+00  0.000000000E+00 -2.961684939E+02  2.961684939E+02  0.000000000E+00  0.00000E+00  9.000E+00
      -6     2     1     2     0   501 -1.577207551E+02  4.514711051E+01  3.696646644E+00  2.380654926E+02  1.724743906E+02  0.00000E+00  9.000E+00
       6     2     1     2   507     0  1.507614297E+02  3.340201339E+00  2.293643386E+01  2.296107112E+02  1.716241039E+02  0.00000E+00  9.000E+00
     -24     2     3     3     0     0 -1.617426289E+02 -1.321800238E-01 -2.280019700E+01  1.825478750E+02  8.150571900E+01  0.00000E+00  9.000E+00
      24     2     4     4     0     0  1.519759870E+02 -3.645220178E+01 -1.044972904E+01  1.762699875E+02  8.084830250E+01  0.00000E+00  9.000E+00
     -11     1     6     6     0     0  5.478835997E+01 -5.426670896E+01 -2.747295606E+00  7.716338330E+01  0.000000000E+00  0.00000E+00  9.000E+00
      12     1     6     6     0     0  9.718762706E+01  1.781450718E+01 -7.702433433E+00  9.910660422E+01  2.258693614E-06  0.00000E+00  9.000E+00
      13     1     5     5     0     0 -2.943687483E+01 -3.250103837E+01 -1.410446520E+01  4.606281617E+01  0.000000000E+00  0.00000E+00  9.000E+00
     -14     1     5     5     0     0 -1.323057540E+02  3.236885834E+01 -8.695731803E+00  1.364850589E+02  1.815741803E-06  0.00000E+00  9.000E+00
       5     1     4     4   514     0 -1.948068621E+00  3.719127336E+01  3.390648369E+01  5.058851570E+01  4.750000000E+00  0.00000E+00  9.000E+00
      -5     1     3     3     0   512  1.057793316E+00  4.226258249E+01  2.811131509E+01  5.099071819E+01  4.750000000E+00  0.00000E+00  9.000E+00
      21     1     1     2   511   502  6.959325366E+00 -4.848731185E+01 -6.771716046E+01  8.357670394E+01  2.523185073E-06  0.00000E+00  9.000E+00
      21     1     3     3   512   501  2.964080461E+00  3.016708043E+00 -1.614471441E+00  4.526899428E+00  1.095007245E-07  0.00000E+00  9.000E+00
      21     1     4     4   507   514  7.335113002E-01  2.601129762E+00 -5.203207824E-01  2.752207947E+00  5.107860714E-08  0.00000E+00  9.000E+00
#rwgt            1          17   52.387406366612389                1     6813026           0       11110           0
<weights>
0.11765E+02
</weights>
</event>
<event>
     13  10001  1.35503E+01  1.43165E+02 -1.00000E+00  1.17202E-01
      21    -1     0     0   512   501  0.000000000E+00  0.000000000E+00  1.283043133E+03  1.283043133E+03  0.000000000E+00  0.00000E+00  9.000E+00
      21    -1     0     0   501   502  0.000000000E+00  0.000000000E+00 -6.850350358E+02  6.850350358E+02  0.000000000E+00  0.00000E+00  9.000E+00
      -6     2     1     2     0   502  9.106617721E+01 -2.012205084E+02 -6.163307316E+02  6.772269110E+02  1.731761435E+02  0.00000E+00  9.000E+00
       6     2     1     2   507     0 -5.106645058E-01  9.033294103E+01  1.069203187E+03  1.086986823E+03  1.737371469E+02  0.00000E+00  9.000E+00
     -24     2     3     3     0     0  1.001278922E+02 -1.660605294E+02 -3.462747100E+02  4.046995618E+02  7.920774126E+01  0.00000E+00  9.000E+00
      24     2     4     4     0     0 -1.747368353E+01  1.057401324E+01  2.392491383E+02  2.530230846E+02  7.977087078E+01  0.00000E+00  9.000E+00
     -11     1     6     6     0     0  5.052031088E+00 -2.687603055E+01  3.644741916E+01  4.556597853E+01  0.000000000E+00  0.00000E+00  9.000E+00
      12     1     6     6     0     0 -2.252571462E+01  3.745004379E+01  2.028017191E+02  2.074571061E+02  3.814697266E-06  0.00000E+00  9.000E+00
      13     1     5     5     0     0  8.413047611E+01 -1.179474405E+02 -3.105294197E+02  3.426631819E+02  0.000000000E+00  0.00000E+00  9.000E+00
     -14     1     5     5     0     0  1.599741608E+01 -4.811308895E+01 -3.574529032E+01  6.203637988E+01  1.719260824E-06  0.00000E+00  9.000E+00
       5     1     4     4   507     0  1.696301903E+01  7.975892779E+01  8.299540487E+02  8.339637379E+02  4.750000000E+00  0.00000E+00  9.000E+00
      -5     1     3     3     0   502 -9.061714971E+00 -3.515997891E+01 -2.700560216E+02  2.725273492E+02  4.750000000E+00  0.00000E+00  9.000E+00
      21     1     1     2   512   507 -9.055551270E+01  1.108875673E+02  1.451356415E+02  2.038644351E+02  2.697398305E-06  0.00000E+00  9.000E+00
#rwgt            2         113   9.2228886303351381                1     6819405           0           1           0
<weights>
0.13550E+02
</weights>
</event>
<event>
     13  10001  1.35503E+01  8.21931E+01 -1.00000E+00  1.27784E-01
      21    -1     0     0   511   501  0.000000000E+00  0.000000000E+00  5.301344539E+02  5.301344539E+02  0.000000000E+00  0.00000E+00  9.000E+00
      21    -1     0     0   507   502  0.000000000E+00  0.000000000E+00 -3.355211821E+02  3.355211821E+02  0.000000000E+00  0.00000E+00  9.000E+00
      -6     2     1     2     0   501 -3.934590513E+01  7.312595247E+01  3.980122738E+02  4.420677014E+02  1.735355219E+02  0.00000E+00  9.000E+00
       6     2     1     2   507     0  1.199338261E+02 -8.929070772E+01 -2.419406340E+02  3.328070462E+02  1.728244962E+02  0.00000E+00  9.000E+00
     -24     2     3     3     0     0  3.426663022E+01  6.990188705E+01  1.860988751E+02  2.176594774E+02  8.174583190E+01  0.00000E+00  9.000E+00
      24     2     4     4     0     0  8.279743331E+01 -1.262251893E+02 -2.123540370E+02  2.724647159E+02  7.971556331E+01  0.00000E+00  9.000E+00
     -11     1     6     6     0     0  3.007779255E+01 -1.421517906E+01 -9.962514552E+01  1.050329212E+02  0.000000000E+00  0.00000E+00  9.000E+00
      12     1     6     6     0     0  5.271964076E+01 -1.120100102E+02 -1.127288915E+02  1.674317947E+02  4.473129043E-06  0.00000E+00  9.000E+00
      13     1     5     5     0     0 -1.342053298E+01  1.330447840E+01  1.096094145E+02  1.112265418E+02  0.000000000E+00  0.00000E+00  9.000E+00
     -14     1     5     5     0     0  4.768716320E+01  5.659740865E+01  7.648946056E+01  1.064329356E+02  1.907348633E-06  0.00000E+00  9.000E+00
       5     1     4     4   507     0  3.713639279E+01  3.693448155E+01 -2.958659696E+01  6.034233022E+01  4.750000000E+00  0.00000E+00  9.000E+00
      -5     1     3     3     0   501 -7.361253535E+01  3.224065421E+00  2.119133987E+02  2.244082240E+02  4.750000000E+00  0.00000E+00  9.000E+00
      21     1     1     2   511   502 -8.058792097E+01  1.616475526E+01  3.854163191E+01  9.078088845E+01  6.743495762E-07  0.00000E+00  9.000E+00
#rwgt            2         113   1.9815404721759879                1     6831028           0           1           0
<weights>
0.13550E+02
</weights>
</event>
<event>
     13  10001  1.35503E+01  1.58367E+01 -1.00000E+00  1.75191E-01
      21    -1     0     0   512   501  0.000000000E+00  0.000000000E+00  1.875689438E+02  1.875689438E+02  0.000000000E+00  0.00000E+00  9.000E+00
      21    -1     0     0   507   502  0.000000000E+00  0.000000000E+00 -2.733762641E+02  2.733762641E+02  0.000000000E+00  0.00000E+00  9.000E+00
      -6     2     1     2     0   501 -2.089143523E+01 -3.525444635E+01  6.377265544E+01  1.849101736E+02  1.686579161E+02  0.00000E+00  9.000E+00
       6     2     1     2   507     0  3.587228076E+01  3.011880387E+01 -1.722062667E+02  2.484171126E+02  1.728065412E+02  0.00000E+00  9.000E+00
     -24     2     3     3     0     0 -4.355134841E+01 -3.689368336E+01 -1.651729824E+01  1.013326771E+02  8.208304624E+01  0.00000E+00  9.000E+00
      24     2     4     4     0     0  2.485335723E+01  6.577055403E+01 -4.930640725E+01  1.198892872E+02  8.365921494E+01  0.00000E+00  9.000E+00
     -11     1     6     6     0     0  4.732304509E+01  1.163746619E+01 -3.365373774E+01  5.922394178E+01  0.000000000E+00  0.00000E+00  9.000E+00
      12     1     6     6     0     0 -2.246968786E+01  5.413308784E+01 -1.565266951E+01  6.066534541E+01  9.078709013E-07  0.00000E+00  9.000E+00
      13     1     5     5     0     0  1.740078276E+01 -3.072874413E+01 -1.884137966E+01  4.002549867E+01  0.000000000E+00  0.00000E+00  9.000E+00
     -14     1     5     5     0     0 -6.095213116E+01 -6.164939230E+00  2.324081418E+00  6.130717840E+01  1.388289296E-06  0.00000E+00  9.000E+00
       5     1     4     4   507     0  1.101892353E+01 -3.565175016E+01 -1.228998594E+02  1.285278254E+02  4.750000000E+00  0.00000E+00  9.000E+00
      -5     1     3     3     0   501  2.265991317E+01  1.639237012E+00  8.028995368E+01  8.357749652E+01  4.750000000E+00  0.00000E+00  9.000E+00
      21     1     1     2   512   502 -1.498084553E+01  5.135642479E+00  2.262629092E+01  2.761792167E+01  0.000000000E+00  0.00000E+00  9.000E+00
#rwgt            2         113   48.302094041833577                1     6844427           0           1           0
<weights>
0.13550E+02
</weights>
</event>
<event>
     15  10001  1.35503E+01  4.58330E+01 -1.00000E+00  2.60768E-01
      21    -1     0     0   507   501  0.000000000E+00  0.000000000E+00  3.655904351E+01  3.655904351E+01  0.000000000E+00  0.00000E+00  9.000E+00
       2    -1     0     0   501     0  0.000000000E+00  0.000000000E+00 -3.024900292E+03  3.024900292E+03  0.000000000E+00  0.00000E+00  9.000E+00
      -6     2     1     2     0   502  1.319630490E+02  8.822089365E+01 -1.351359525E+03  1.371610396E+03  1.730472157E+02  0.00000E+00  9.000E+00
       6     2     1     2   507     0 -8.613151913E+01 -8.785995043E+01 -4.048399548E+02  4.568550238E+02  1.722878819E+02  0.00000E+00  9.000E+00
     -24     2     3     3     0     0  1.189014022E+01 -1.015846838E+00 -3.505278684E+02  3.596213044E+02  7.946879071E+01  0.00000E+00  9.000E+00
      24     2     4     4     0     0 -5.999559921E+01 -5.086889845E+00 -3.194030420E+02  3.347888639E+02  8.024918585E+01  0.00000E+00  9.000E+00
     -11     1     6     6     0     0 -7.451852405E+01  1.323746351E+01 -2.193541903E+02  2.320441804E+02  0.000000000E+00  0.00000E+00  9.000E+00
      12     1     6     6     0     0  1.452292483E+01 -1.832435336E+01 -1.000488517E+02  1.027446835E+02  1.907348633E-06  0.00000E+00  9.000E+00
      13     1     5     5     0     0  3.143066612E+01  2.152513692E+01 -2.860653305E+02  2.885906991E+02  0.000000000E+00  0.00000E+00  9.000E+00
     -14     1     5     5     0     0 -1.954052590E+01 -2.254098376E+01 -6.446253790E+01  7.103060533E+01  2.336015456E-06  0.00000E+00  9.000E+00
       5     1     4     4   512     0 -2.614265037E+01 -8.075651408E+01 -8.441232265E+01  1.198042380E+02  4.750000000E+00  0.00000E+00  9.000E+00
      -5     1     3     3     0   511  9.384742265E+01  6.770890424E+01 -7.574773369E+02  7.662808316E+02  4.750000000E+00  0.00000E+00  9.000E+00
       2     1     1     2   502     0 -4.583152986E+01 -3.609432151E-01 -1.232141768E+03  1.232993916E+03  0.000000000E+00  0.00000E+00  9.000E+00
      21     1     3     3   511   502  2.622548611E+01  2.152783624E+01 -2.433543199E+02  2.457082596E+02  0.000000000E+00  0.00000E+00  9.000E+00
      21     1     4     4   507   512  6.730460210E-03 -2.016546513E+00 -1.024590217E+00  2.261921805E+00  1.482646819E-07  0.00000E+00  9.000E+00
#rwgt            1          17   8.6662579963244024                1     6846738           0       11110           0
<weights>
0.15076E+02
</weights>
</event>
<event>
     15  10001  1.35503E+01  9.80872E+01 -1.00000E+00  3.57865E-01
       2    -1     0     0   502     0  0.000000000E+00  0.000000000E+00  8.101548495E+01  8.101548495E+01  0.000000000E+00  0.00000E+00  9.000E+00
      21    -1     0     0   511   502  0.000000000E+00  0.000000000E+00 -7.966918008E+02  7.966918008E+02  0.000000000E+00  0.00000E+00  9.000E+00
      -6     2     1     2     0   507 -9.716243050E-01 -4.054870293E+01 -3.616268474E+02  4.025876556E+02  1.722141177E+02  0.00000E+00  9.000E+00
       6     2     1     2   507     0  1.172459137E+01 -5.694730420E+01 -1.120969867E+02  2.140409042E+02  1.728216212E+02  0.00000E+00  9.000E+00
     -24     2     3     3     0     0  5.888897586E+00 -4.556527642E-01 -3.502776301E+02  3.597631515E+02  8.185487356E+01  0.00000E+00  9.000E+00
      24     2     4     4     0     0 -1.131687294E+01 -1.026437959E+02 -5.515995309E+01  1.372168355E+02  7.156828253E+01  0.00000E+00  9.000E+00
     -11     1     6     6     0     0  2.579914042E+01 -1.452411345E+01 -1.789495866E+01  3.459443688E+01  0.000000000E+00  0.00000E+00  9.000E+00
      12     1     6     6     0     0 -3.711601336E+01 -8.811968249E+01 -3.726499443E+01  1.026223986E+02  1.846782373E-06  0.00000E+00  9.000E+00
      13     1     5     5     0     0  3.301658743E+01 -2.490667709E+01 -2.415743739E+02  2.450889955E+02  0.000000000E+00  0.00000E+00  9.000E+00
     -14     1     5     5     0     0 -2.712768984E+01  2.445102432E+01 -1.087032562E+02  1.146741560E+02  1.907348633E-06  0.00000E+00  9.000E+00
       5     1     4     4   512     0  1.528393284E+01  2.819146764E+01 -3.657378847E+01  4.887291637E+01  4.750000000E+00  0.00000E+00  9.000E+00
      -5     1     3     3     0   513 -5.005395170E+00 -3.363087757E+01 -7.737549962E+00  3.519264250E+01  4.750000000E+00  0.00000E+00  9.000E+00
       2     1     1     2   511     0 -1.075296706E+01  9.749600713E+01 -2.419524818E+02  2.610787259E+02  0.000000000E+00  0.00000E+00  9.000E+00
      21     1     4     4   507   512  7.757531474E+00  1.750502411E+01 -2.036324514E+01  2.795115233E+01  3.371747881E-07  0.00000E+00  9.000E+00
      21     1     3     3   513   507 -1.855126720E+00 -6.462172603E+00 -3.611667320E+00  7.631861551E+00  2.384185791E-07  0.00000E+00  9.000E+00
#rwgt            1           8  0.30222542902388683                1     6855042           0       11011           0
<weights>
0.18737E+02
</weights>
</event>
<event>
     13  10001  1.35503E+01  9.91655E+01 -1.00000E+00  1.23992E-01
      21    -1     0     0   502   501  0.000000000E+00  0.000000000E+00  4.321383725E+02  4.321383725E+02  0.000000000E+00  0.00000E+00  9.000E+00
      -3    -1     0     0     0   502  0.000000000E+00  0.000000000E+00 -5.579580440E+02  5.579580440E+02  0.000000000E+00  0.00000E+00  9.000E+00
      -6     2     1     2     0   501 -1.345051036E+02  7.110002853E+01  2.725364846E+02  3.566076059E+02  1.724703226E+02  0.00000E+00  9.000E+00
       6     2     1     2   507     0  1.197563283E+02 -1.691626105E+02 -5.185616266E+01  2.730778760E+02  1.700732130E+02  0.00000E+00  9.000E+00
     -24     2     3     3     0     0 -4.323427009E+01  9.695127418E+01  1.799207314E+02  2.239467895E+02  8.069661262E+01  0.00000E+00  9.000E+00
      24     2     4     4     0     0  1.437244643E+02 -9.544330547E+01 -3.362965702E+01  1.933046005E+02  8.043362818E+01  0.00000E+00  9.000E+00
     -11     1     6     6     0     0  3.718025508E+00 -3.856005492E+01 -1.279692238E+00  3.876002014E+01  0.000000000E+00  0.00000E+00  9.000E+00
      12     1     6     6     0     0  1.400064388E+02 -5.688325055E+01 -3.234996478E+01  1.545445803E+02  2.384185791E-06  0.00000E+00  9.000E+00
      13     1     5     5     0     0  1.789614910E+01  5.361841161E+01  5.912771725E+01  8.180032496E+01  0.000000000E+00  0.00000E+00  9.000E+00
     -14     1     5     5     0     0 -6.113041919E+01  4.333286257E+01  1.207930141E+02  1.421464646E+02  2.697398305E-06  0.00000E+00  9.000E+00
       5     1     4     4   507     0 -2.396813597E+01 -7.371930508E+01 -1.822650564E+01  7.977327554E+01  4.750000000E+00  0.00000E+00  9.000E+00
      -5     1     3     3     0   501 -9.127083349E+01 -2.585124565E+01  9.261575318E+01  1.326608163E+02  4.750000000E+00  0.00000E+00  9.000E+00
      -3     1     1     2     0   507  1.474877530E+01  9.806258202E+01 -3.464999934E+02  3.604109346E+02  0.000000000E+00  0.00000E+00  9.000E+00
#rwgt            2         106   2.4385099437810066E-002           1     6868092           0           1           0
<weights>
0.13550E+02
</weights>
</event>
<event>
     14  10001  1.35503E+01  6.16299E+01 -1.00000E+00  1.65056E-01
      21    -1     0     0   511   501  0.000000000E+00  0.000000000E+00  7.674976171E+01  7.674976171E+01  0.000000000E+00  0.00000E+00  9.000E+00
      21    -1     0     0   507   502  0.000000000E+00  0.000000000E+00 -1.069107644E+03  1.069107644E+03  0.000000000E+00  0.00000E+00  9.000E+00
      -6     2     1     2     0   501 -8.009749227E+01  3.332383195E+01 -1.413241532E+02  2.406664171E+02  1.744182388E+02  0.00000E+00  9.000E+00
       6     2     1     2   507     0  8.313332365E+01 -9.487889957E+01 -7.894042745E+02  8.180334743E+02  1.735122512E+02  0.00000E+00  9.000E+00
     -24     2     3     3     0     0 -2.019665409E+01 -3.436444305E+01 -4.121086742E+01  1.019315929E+02  8.427867017E+01  0.00000E+00  9.000E+00
      24     2     4     4     0     0  3.505835601E+01  1.439978942E+01 -4.411364984E+02  4.498405347E+02  7.948996268E+01  0.00000E+00  9.000E+00
     -11     1     6     6     0     0  1.727030914E+01  3.073929206E+00 -1.471061298E+01  2.289355265E+01  0.000000000E+00  0.00000E+00  9.000E+00
      12     1     6     6     0     0  1.778804687E+01  1.132586021E+01 -4.264258854E+02  4.269469820E+02  5.394796609E-06  0.00000E+00  9.000E+00
      13     1     5     5     0     0 -3.764029923E+01  1.437711296E+01 -2.608125809E+01  4.799714081E+01  0.000000000E+00  0.00000E+00  9.000E+00
     -14     1     5     5     0     0  1.744364514E+01 -4.874155601E+01 -1.512960934E+01  5.393445204E+01  1.238859277E-06  0.00000E+00  9.000E+00
       5     1     4     4   507     0  4.807496764E+01 -1.092786890E+02 -3.482677761E+02  3.681929396E+02  4.750000000E+00  0.00000E+00  9.000E+00
      -5     1     3     3     0   513 -4.749819147E+01  5.521486234E+01 -5.844122360E+01  9.350239746E+01  4.750000000E+00  0.00000E+00  9.000E+00
      21     1     1     2   511   502 -3.035831381E+00  6.155506762E+01 -6.162945445E+01  8.715751417E+01  1.784161275E-06  0.00000E+00  9.000E+00
      21     1     3     3   513   501 -1.240264671E+01  1.247341266E+01 -4.167206219E+01  4.523242682E+01  6.743495762E-07  0.00000E+00  9.000E+00
#rwgt            1          17   35.738294253515605                1     6870306           0         111           0
<weights>
0.20509E+02
</weights>
</event>
<event>
     15  10001  1.35503E+01  9.37382E+01 -1.00000E+00  6.66416E-01
      21    -1     0     0   507   512  0.000000000E+00  0.000000000E+00  1.636817247E+02  1.636817247E+02  0.000000000E+00  0.00000E+00  9.000E+00
      21    -1     0     0   501   502  0.000000000E+00  0.000000000E+00 -4.088990493E+02  4.088990493E+02  0.000000000E+00  0.00000E+00  9.000E+00
      -6     2     1     2     0   502 -4.148191608E+01 -5.552646186E+01 -1.434117055E+02  2.346373369E+02  1.722899453E+02  0.00000E+00  9.000E+00
       6     2     1     2   507     0  1.932989506E+00  1.405131299E+02 -1.011736958E+02  2.442031007E+02  1.721957072E+02  0.00000E+00  9.000E+00
     -24     2     3     3     0     0  4.059862369E+01 -1.543797981E+01 -5.585109365E+01  1.079869366E+02  8.157974232E+01  0.00000E+00  9.000E+00
      24     2     4     4     0     0  6.228994188E+00  1.417413715E+01 -8.231487195E+01  1.158078324E+02  7.997505464E+01  0.00000E+00  9.000E+00
     -11     1     6     6     0     0 -3.028475155E+01 -1.560785782E+01 -2.993150796E+01  4.535048589E+01  0.000000000E+00  0.00000E+00  9.000E+00
      12     1     6     6     0     0  3.651374573E+01  2.978199497E+01 -5.238336399E+01  7.045734649E+01  1.168007728E-06  0.00000E+00  9.000E+00
      13     1     5     5     0     0 -6.510318474E-01 -4.194389655E+01 -3.528988429E+01  5.481870331E+01  0.000000000E+00  0.00000E+00  9.000E+00
     -14     1     5     5     0     0  4.124965554E+01  2.650591674E+01 -2.056120936E+01  5.316823332E+01  2.929736549E-06  0.00000E+00  9.000E+00
       5     1     4     4   511     0 -6.120367048E+00  1.046730891E+02 -1.892869599E+01  1.066525785E+02  4.750000000E+00  0.00000E+00  9.000E+00
      -5     1     3     3     0   514 -7.159944322E+01 -3.453998760E+01 -7.684799436E+01  1.106691816E+02  4.750000000E+00  0.00000E+00  9.000E+00
      21     1     1     2   501   512  3.954892658E+01 -8.498666804E+01 -6.319233439E-01  9.374033638E+01  2.592566530E-06  0.00000E+00  9.000E+00
      21     1     4     4   507   511  1.824362365E+00  2.166590364E+01  6.987216520E-02  2.174268982E+01  2.940163390E-07  0.00000E+00  9.000E+00
      21     1     3     3   514   502 -1.048109655E+01 -5.548494442E+00 -1.071261753E+01  1.598121866E+01  2.665600750E-07  0.00000E+00  9.000E+00
#rwgt            1          17   28.735656724007338                1     6880598           0       11011           0
<weights>
0.17703E+02
</weights>
</event>
<event>
     15  10001  1.35503E+01  1.51535E+02 -1.00000E+00  1.84550E-01
      21    -1     0     0   502   501  0.000000000E+00  0.000000000E+00  6.779103662E+02  6.779103662E+02  0.000000000E+00  0.00000E+00  9.000E+00
      21    -1     0     0   507   511  0.000000000E+00  0.000000000E+00 -1.068215706E+03  1.068215706E+03  0.000000000E+00  0.00000E+00  9.000E+00
      -6     2     1     2     0   501  5.793506531E+00  2.939510713E+02 -5.262401623E+02  6.278398035E+02  1.755372140E+02  0.00000E+00  9.000E+00
       6     2     1     2   507     0 -8.560129183E+01 -1.651354397E+02 -4.478817685E+02  5.151241329E+02  1.736591465E+02  0.00000E+00  9.000E+00
     -24     2     3     3     0     0 -5.241649643E+01  1.165959265E+02 -2.066922020E+02  2.558682860E+02  8.003008322E+01  0.00000E+00  9.000E+00
      24     2     4     4     0     0 -8.045992466E+00 -5.715335648E+01 -9.043637797E+01  1.336744648E+02  7.974258537E+01  0.00000E+00  9.000E+00
     -11     1     6     6     0     0 -2.650979237E+01 -6.961441313E+01 -7.919470113E+01  1.087232095E+02  0.000000000E+00  0.00000E+00  9.000E+00
      12     1     6     6     0     0  1.846379990E+01  1.246105665E+01 -1.124167684E+01  2.495125523E+01  1.455134823E-06  0.00000E+00  9.000E+00
      13     1     5     5     0     0 -2.966456771E+01  1.163692637E+02 -1.978769971E+02  2.314672722E+02  0.000000000E+00  0.00000E+00  9.000E+00
     -14     1     5     5     0     0 -2.275192872E+01  2.266628499E-01 -8.815204880E+00  2.440101378E+01  1.390207266E-06  0.00000E+00  9.000E+00
       5     1     4     4   513     0 -5.923869982E+01 -8.229400676E+01 -2.656235506E+02  2.843588582E+02  4.750000000E+00  0.00000E+00  9.000E+00
      -5     1     3     3     0   512  5.639531808E+01  1.784802327E+02 -3.187826449E+02  3.697033439E+02  4.750000000E+00  0.00000E+00  9.000E+00
      21     1     1     2   502   511  7.980778530E+01 -1.288156316E+02  5.838165912E+02  6.031621355E+02  1.078959322E-05  0.00000E+00  9.000E+00
      21     1     3     3   512   501  1.814684877E+00 -1.125087877E+00 -7.653153685E-01  2.268173615E+00  1.224255318E-07  0.00000E+00  9.000E+00
      21     1     4     4   507   513 -1.831659955E+01 -2.568807649E+01 -9.182183987E+01  9.709080992E+01  0.000000000E+00  0.00000E+00  9.000E+00
#rwgt            1          17   18.620993545846552                1     6891617           0       11110           0
<weights>
0.14204E+02
</weights>
</event>
<event>
     15  10001 -1.35503E+01  3.52710E+01 -1.00000E+00  2.13099E-01
      21    -1     0     0   512   501  0.000000000E+00  0.000000000E+00  1.201192475E+03  1.201192475E+03  0.000000000E+00  0.00000E+00  9.000E+00
      21    -1     0     0   501   502  0.000000000E+00  0.000000000E+00 -5.785456213E+02  5.785456213E+02  0.000000000E+00  0.00000E+00  9.000E+00
      -6     2     1     2     0   502  3.748247553E+01  4.312357441E+01 -5.457026309E+02  5.748858696E+02  1.715745409E+02  0.00000E+00  9.000E+00
       6     2     1     2   507     0 -4.326675722E+01 -7.791699936E+01  5.055407490E+02  5.411056936E+02  1.711164856E+02  0.00000E+00  9.000E+00
     -24     2     3     3     0     0  2.173989200E+00  9.164922743E+01 -1.684026481E+02  1.926741029E+02  1.896182850E+01  0.00000E+00  9.000E+00
      24     2     4     4     0     0 -6.110210910E+00  1.031393373E+01  1.300100114E+02  1.519179678E+02  7.767080510E+01  0.00000E+00  9.000E+00
     -11     1     6     6     0     0  7.500156123E-01  1.269202113E+01  1.394389679E+02  1.400174121E+02  0.000000000E+00  0.00000E+00  9.000E+00
      12     1     6     6     0     0 -6.860226522E+00 -2.378087399E+00 -9.428956429E+00  1.190055574E+01  1.227334755E-06  0.00000E+00  9.000E+00
      13     1     5     5     0     0  6.665640793E+00  4.762812420E+01 -1.034335488E+02  1.140673836E+02  0.000000000E+00  0.00000E+00  9.000E+00
     -14     1     5     5     0     0 -4.491651593E+00  4.402110323E+01 -6.496909932E+01  7.860671937E+01  2.697398305E-06  0.00000E+00  9.000E+00
       5     1     4     4   511     0 -1.947422840E+01 -7.434350746E+01  3.229375629E+02  3.319901124E+02  4.750000000E+00  0.00000E+00  9.000E+00
      -5     1     3     3     0   514  2.731245759E+01 -3.011644695E+01 -2.618627854E+02  2.650427354E+02  4.750000000E+00  0.00000E+00  9.000E+00
      21     1     1     2   512   507  5.784281692E+00  3.479342495E+01  6.628087356E+02  6.637465332E+02  2.018548058E-05  0.00000E+00  9.000E+00
      21     1     4     4   507   511 -1.768231791E+01 -1.388742563E+01  5.259317461E+01  5.719761335E+01  6.743495762E-07  0.00000E+00  9.000E+00
      21     1     3     3   514   502  7.996028735E+00 -1.840920607E+01 -1.154371973E+02  1.171690312E+02  2.697398305E-06  0.00000E+00  9.000E+00
#rwgt            1          17  -478.66941159586145                1     6896517           0       11011           0
<weights>
-.19216E+02
</weights>
</event>
<event>
     15  10001  1.35503E+01  2.07622E+01 -1.00000E+00  2.63029E-01
      21    -1     0     0   507   511  0.000000000E+00  0.000000000E+00  5.464864902E+01  5.464864902E+01  0.000000000E+00  0.00000E+00  9.000E+00
      21    -1     0     0   501   502  0.000000000E+00  0.000000000E+00 -6.910391028E+02  6.910391028E+02  0.000000000E+00  0.00000E+00  9.000E+00
      -6     2     1     2     0   502 -1.542881562E+01 -3.267362037E+01 -2.173827299E+02  2.786577546E+02  1.705557947E+02  0.00000E+00  9.000E+00
       6     2     1     2   507     0  3.540901515E+01  3.831831548E+01 -4.007556015E+02  4.393856320E+02  1.724314061E+02  0.00000E+00  9.000E+00
     -24     2     3     3     0     0 -3.586741541E+00 -2.537505727E+01 -2.533145899E+01  8.590334192E+01  7.798040197E+01  0.00000E+00  9.000E+00
      24     2     4     4     0     0 -4.750212375E+00  3.289940947E+01 -9.670691127E+01  1.324670953E+02  8.420432875E+01  0.00000E+00  9.000E+00
     -11     1     6     6     0     0 -3.710767062E+01  3.858410097E+00 -7.523138742E+01  8.397397336E+01  0.000000000E+00  0.00000E+00  9.000E+00
      12     1     6     6     0     0  3.235745824E+01  2.904099937E+01 -2.147552384E+01  4.849312191E+01  2.092114541E-06  0.00000E+00  9.000E+00
      13     1     5     5     0     0 -3.844801196E+01 -1.669904397E+01  4.841563410E-02  4.191789639E+01  0.000000000E+00  0.00000E+00  9.000E+00
     -14     1     5     5     0     0  3.486127042E+01 -8.676013295E+00 -2.537987462E+01  4.398544553E+01  1.011524364E-06  0.00000E+00  9.000E+00
       5     1     4     4   513     0  3.162149123E+01  5.761374502E+00 -2.622790493E+02  2.642838897E+02  4.750000000E+00  0.00000E+00  9.000E+00
      -5     1     3     3     0   512 -6.270629480E+00 -5.916669541E+00 -1.485938951E+02  1.489195620E+02  4.750000000E+00  0.00000E+00  9.000E+00
      21     1     1     2   501   511 -1.998019954E+01 -5.644695108E+00 -1.825212231E+01  2.764436516E+01  5.840038640E-07  0.00000E+00  9.000E+00
      21     1     3     3   512   502 -5.571444597E+00 -1.381893565E+00 -4.345737581E+01  4.383485071E+01  6.743495762E-07  0.00000E+00  9.000E+00
      21     1     4     4   507   513  8.537736297E+00 -3.424684846E-01 -4.176964096E+01  4.263464708E+01  4.768371582E-07  0.00000E+00  9.000E+00
#rwgt            1          17   23.406970701424839                1     6900099           0       11110           0
<weights>
0.12296E+02
</weights>
</event>
<event>
     15  10001 -1.35503E+01  3.04443E+01 -1.00000E+00  2.52264E-01
      21    -1     0     0   502   501  0.000000000E+00  0.000000000E+00  4.353724230E+02  4.353724230E+02  0.000000000E+00  0.00000E+00  9.000E+00
      21    -1     0     0   512   502  0.000000000E+00  0.000000000E+00 -3.681311896E+02  3.681311896E+02  0.000000000E+00  0.00000E+00  9.000E+00
      -6     2     1     2     0   501 -5.668282099E+01 -2.923769391E+01  3.385571281E+02  3.854787232E+02  1.729310038E+02  0.00000E+00  9.000E+00
       6     2     1     2   507     0  8.018491523E+01  4.858990035E+01 -6.065180934E+01  2.051723274E+02  1.721233363E+02  0.00000E+00  9.000E+00
     -24     2     3     3     0     0 -2.679915062E+01 -4.747525538E+01  8.145916617E+01  1.249024876E+02  7.741408993E+01  0.00000E+00  9.000E+00
      24     2     4     4     0     0  2.370722031E+01 -1.620041056E+01  1.971418631E+01  8.734834900E+01  8.010367865E+01  0.00000E+00  9.000E+00
     -11     1     6     6     0     0 -2.873695135E+01 -1.213978071E+01  6.205430917E-02  3.119600134E+01  0.000000000E+00  0.00000E+00  9.000E+00
      12     1     6     6     0     0  5.244417166E+01 -4.060629847E+00  1.965213200E+01  5.615234766E+01  1.168007728E-06  0.00000E+00  9.000E+00
      13     1     5     5     0     0 -1.129750326E+01 -2.246517787E+01  9.065227823E+01  9.407525363E+01  0.000000000E+00  0.00000E+00  9.000E+00
     -14     1     5     5     0     0 -1.550164736E+01 -2.501007750E+01 -9.193112059E+00  3.082723402E+01  2.437239683E-06  0.00000E+00  9.000E+00
       5     1     4     4   514     0  5.274604860E+01  6.055723183E+01 -7.386003369E+01  1.092116800E+02  4.750000000E+00  0.00000E+00  9.000E+00
      -5     1     3     3     0   511 -2.728111836E+01  1.886773403E+01  2.549522804E+02  2.571448592E+02  4.750000000E+00  0.00000E+00  9.000E+00
      21     1     1     2   512   507 -2.350209424E+01 -1.935220644E+01 -2.106640853E+02  2.128525620E+02  5.394796609E-06  0.00000E+00  9.000E+00
      21     1     3     3   511   501 -2.602552002E+00 -6.301725650E-01  2.145681513E+00  3.431376333E+00  5.960464478E-08  0.00000E+00  9.000E+00
      21     1     4     4   507   514  3.731646317E+00  4.233079076E+00 -6.505961959E+00  8.612298399E+00  1.192092896E-07  0.00000E+00  9.000E+00
#rwgt            1          17  -85.283889862417880                1     6909871           0       11110           0
<weights>
-.13877E+02
</weights>
</event>
<event>
     13  10001  1.35503E+01  3.09929E+02 -1.00000E+00  1.05135E-01
      21    -1     0     0   502   501  0.000000000E+00  0.000000000E+00  3.208838208E+02  3.208838208E+02  0.000000000E+00  0.00000E+00  9.000E+00
       1    -1     0     0   507     0  0.000000000E+00  0.000000000E+00 -1.214624855E+03  1.214624855E+03  0.000000000E+00  0.00000E+00  9.000E+00
      -6     2     1     2     0   501 -8.842345222E+01  1.187147456E+01 -8.045175346E+00  1.903784907E+02  1.679869223E+02  0.00000E+00  9.000E+00
       6     2     1     2   507     0 -2.198600360E+02  2.002372986E+01  1.110453545E+02  3.013155178E+02  1.723965931E+02  0.00000E+00  9.000E+00
     -24     2     3     3     0     0  9.919350019E+00  4.537906889E+00  2.735248861E+01  8.549453065E+01  8.026312998E+01  0.00000E+00  9.000E+00
      24     2     4     4     0     0 -1.736390363E+02  2.049312673E+00  9.982916859E+00  1.886405903E+02  7.301300600E+01  0.00000E+00  9.000E+00
     -11     1     6     6     0     0 -4.701287868E+01  3.074810633E+01  1.677212242E+01  5.862559931E+01  0.000000000E+00  0.00000E+00  9.000E+00
      12     1     6     6     0     0 -1.266261576E+02 -2.869879366E+01 -6.789205563E+00  1.300149909E+02  2.657591916E-06  0.00000E+00  9.000E+00
      13     1     5     5     0     0  2.871245600E+01  3.701013389E+00 -1.956832937E+01  3.494312728E+01  0.000000000E+00  0.00000E+00  9.000E+00
     -14     1     5     5     0     0 -1.879310598E+01  8.368935003E-01  4.692081797E+01  5.055140337E+01  6.743495762E-07  0.00000E+00  9.000E+00
       5     1     4     4   507     0 -4.622099965E+01  1.797441719E+01  1.010624377E+02  1.126749275E+02  4.750000000E+00  0.00000E+00  9.000E+00
      -5     1     3     3     0   501 -9.834280224E+01  7.333567670E+00 -3.539766395E+01  1.048839601E+02  4.750000000E+00  0.00000E+00  9.000E+00
       1     1     1     2   502     0  3.082834882E+02 -3.189520442E+01 -9.967412130E+02  1.043814667E+03  0.000000000E+00  0.00000E+00  9.000E+00
#rwgt            2          86  0.66867335060739130                1     6933868           0           1           0
<weights>
0.13550E+02
</weights>
</event>
<event>
     15  10001  1.35503E+01  6.28886E+00 -1.00000E+00  2.82090E-01
      21    -1     0     0   511   501  0.000000000E+00  0.000000000E+00  1.870556627E+02  1.870556627E+02  0.000000000E+00  0.00000E+00  9.000E+00
      21    -1     0     0   507   502  0.000000000E+00  0.000000000E+00 -7.361611588E+02  7.361611588E+02  0.000000000E+00  0.00000E+00  9.000E+00
      -6     2     1     2     0   501  4.468527147E+01 -1.784904358E+01  1.286749446E+02  2.196886575E+02  1.714365861E+02  0.00000E+00  9.000E+00
       6     2     1     2   507     0 -5.071160533E+01  1.605096228E+01 -6.564138857E+02  6.812553225E+02  1.743568893E+02  0.00000E+00  9.000E+00
     -24     2     3     3     0     0  6.172552625E+00  2.896653599E+01  1.332285213E+02  1.584575805E+02  8.050965988E+01  0.00000E+00  9.000E+00
      24     2     4     4     0     0 -2.547971976E+01 -1.976348645E+01 -1.593825831E+02  1.822323851E+02  8.225583805E+01  0.00000E+00  9.000E+00
     -11     1     6     6     0     0 -2.365248094E+01 -3.121817174E+01 -1.648285729E+02  1.694180407E+02  0.000000000E+00  0.00000E+00  9.000E+00
      12     1     6     6     0     0 -1.827238819E+00  1.145468530E+01  5.445989803E+00  1.281434438E+01  7.251217997E-07  0.00000E+00  9.000E+00
      13     1     5     5     0     0 -1.241953765E+01 -1.110639968E+01 -1.445016611E+00  1.672378851E+01  0.000000000E+00  0.00000E+00  9.000E+00
     -14     1     5     5     0     0  1.859209027E+01  4.007293567E+01  1.346735379E+02  1.417337920E+02  3.303624740E-06  0.00000E+00  9.000E+00
       5     1     4     4   513     0 -2.522071704E+01  3.585234576E+01 -4.870742014E+02  4.890657578E+02  4.750000000E+00  0.00000E+00  9.000E+00
      -5     1     3     3     0   512  2.626943594E+01 -3.387100067E+01 -4.947520655E+00  4.340931250E+01  4.750000000E+00  0.00000E+00  9.000E+00
      21     1     1     2   511   502  6.026333868E+00  1.798081294E+00 -2.136655503E+01  2.227284153E+01  3.371747881E-07  0.00000E+00  9.000E+00
      21     1     3     3   512   501  1.224328290E+01 -1.294457890E+01  3.939440036E-01  1.782176453E+01  5.465141802E-07  0.00000E+00  9.000E+00
      21     1     4     4   507   513 -1.116852897E-02 -3.789702505E-02 -9.957101197E+00  9.957179579E+00  1.685873940E-07  0.00000E+00  9.000E+00
#rwgt            1          17   176.25341177575908                1     6934786           0       11110           0
<weights>
0.13806E+02
</weights>
</event>
<event>
     15  10001  1.35503E+01  3.73993E+01 -1.00000E+00  3.34301E-01
      21    -1     0     0   502   512  0.000000000E+00  0.000000000E+00  1.961168169E+03  1.961168169E+03  0.000000000E+00  0.00000E+00  9.000E+00
      21    -1     0     0   507   502  0.000000000E+00  0.000000000E+00 -3.124890786E+01  3.124890786E+01  0.000000000E+00  0.00000E+00  9.000E+00
      -6     2     1     2     0   501 -7.900893600E+01  3.647090658E+01  9.272621516E+02  9.484127573E+02  1.791622767E+02  0.00000E+00  9.000E+00
       6     2     1     2   507     0  4.403121496E+01 -4.970968876E+01  4.131352848E+02  4.532973803E+02  1.743213996E+02  0.00000E+00  9.000E+00
     -24     2     3     3     0     0 -3.513364585E+01 -1.281730848E+01  7.988435242E+02  8.036873611E+02  7.977306395E+01  0.00000E+00  9.000E+00
      24     2     4     4     0     0  4.819418017E+01  2.826947713E+01  1.824599787E+02  2.073996807E+02  8.124740850E+01  0.00000E+00  9.000E+00
     -11     1     6     6     0     0  5.358490509E+01 -1.105849133E+01  7.495625036E+01  9.280124866E+01  0.000000000E+00  0.00000E+00  9.000E+00
      12     1     6     6     0     0 -5.390724927E+00  3.932796847E+01  1.075037284E+02  1.145984321E+02  0.000000000E+00  0.00000E+00  9.000E+00
      13     1     5     5     0     0 -3.670954744E+01 -4.297183391E+01  5.847598600E+02  5.874846919E+02  0.000000000E+00  0.00000E+00  9.000E+00
     -14     1     5     5     0     0  1.575901586E+00  3.015452544E+01  2.140836642E+02  2.162026692E+02  3.814697266E-06  0.00000E+00  9.000E+00
       5     1     4     4   511     0 -1.299902845E+01 -7.377129442E+01  2.103165790E+02  2.233087650E+02  4.750000000E+00  0.00000E+00  9.000E+00
      -5     1     3     3     0   514 -3.918699932E+01  4.732709368E+01  1.174584111E+02  1.326443197E+02  4.750000000E+00  0.00000E+00  9.000E+00
      21     1     1     2   501   512  3.497772103E+01  1.323878218E+01  5.895218247E+02  5.907069393E+02  1.321449896E-05  0.00000E+00  9.000E+00
      21     1     4     4   507   511  8.836063242E+00 -4.207871473E+00  2.035872710E+01  2.258893457E+01  0.000000000E+00  0.00000E+00  9.000E+00
      21     1     3     3   514   501 -4.688290828E+00  1.961121380E+00  1.096021629E+01  1.208107648E+01  2.665600750E-07  0.00000E+00  9.000E+00
#rwgt            1          17   11.212224010303711                1     6944242           0       11011           0
<weights>
0.17496E+02
</weights>
</event>
<event>
     14  10001  1.35503E+01  1.91872E+01 -1.00000E+00  7.51938E-01
       2    -1     0     0   502     0  0.000000000E+00  0.000000000E+00  5.729917539E+02  5.729917539E+02  0.000000000E+00  0.00000E+00  9.000E+00
      21    -1     0     0   507   502  0.000000000E+00  0.000000000E+00 -1.597264884E+02  1.597264884E+02  0.000000000E+00  0.00000E+00  9.000E+00
      -6     2     1     2     0   501 -1.181557166E+02 -3.273947120E+01  3.305706575E+01  2.138440359E+02  1.720577105E+02  0.00000E+00  9.000E+00
       6     2     1     2   507     0  1.371833588E+02  3.027019449E+01  1.089322478E+02  2.469205512E+02  1.713708416E+02  0.00000E+00  9.000E+00
     -24     2     3     3     0     0 -1.427632210E+01  2.540532325E+01 -1.365021989E+01  8.587576344E+01  7.961830455E+01  0.00000E+00  9.000E+00
      24     2     4     4     0     0  1.898330676E+01  5.645287044E+01  7.138002990E+01  1.190608810E+02  7.438475781E+01  0.00000E+00  9.000E+00
     -11     1     6     6     0     0 -2.537485839E+01  2.272087858E+01  4.745980000E+01  5.841707265E+01  0.000000000E+00  0.00000E+00  9.000E+00
      12     1     6     6     0     0  4.435816514E+01  3.373199187E+01  2.392022990E+01  6.064380833E+01  1.617033478E-06  0.00000E+00  9.000E+00
      13     1     5     5     0     0 -1.300672032E+01 -2.771515736E+01 -1.147610652E+01  3.269565326E+01  0.000000000E+00  0.00000E+00  9.000E+00
     -14     1     5     5     0     0 -1.269601779E+00  5.312048062E+01 -2.174113379E+00  5.318011018E+01  1.495767843E-06  0.00000E+00  9.000E+00
       5     1     4     4   512     0  1.161693015E+02 -2.714099575E+01  3.490834590E+01  1.243908975E+02  4.750000000E+00  0.00000E+00  9.000E+00
      -5     1     3     3     0   501 -1.038793945E+02 -5.814479445E+01  4.670728564E+01  1.279682725E+02  4.750000000E+00  0.00000E+00  9.000E+00
       2     1     1     2   501     0 -1.902764224E+01  2.469276711E+00  2.712759519E+02  2.719536552E+02  0.000000000E+00  0.00000E+00  9.000E+00
      21     1     4     4   507   512  2.030750585E+00  9.583197933E-01  2.643872034E+00  3.468772708E+00  2.980232239E-08  0.00000E+00  9.000E+00
#rwgt            1          17   10.263482456409502                1     6950801           0         110           0
<weights>
0.15875E+02
</weights>
</event>
<event>
     15  10001  1.35503E+01  8.12810E+01 -1.00000E+00  3.75357E-01
      -2    -1     0     0     0   511  0.000000000E+00  0.000000000E+00  7.777114940E+01  7.777114940E+01  0.000000000E+00  0.00000E+00  9.000E+00
       2    -1     0     0   507     0  0.000000000E+00  0.000000000E+00 -8.387627151E+02  8.387627151E+02  0.000000000E+00  0.00000E+00  9.000E+00
      -6     2     1     2     0   501 -1.375679701E+02 -4.987974483E+01 -3.150016173E+02  3.882627599E+02  1.735194988E+02  0.00000E+00  9.000E+00
       6     2     1     2   507     0  8.933793321E+01 -1.554557321E+01 -3.638297385E+02  4.126990111E+02  1.724107422E+02  0.00000E+00  9.000E+00
     -24     2     3     3     0     0 -5.620395921E+01 -5.559404137E+01 -2.751333041E+02  2.970390725E+02  7.927353339E+01  0.00000E+00  9.000E+00
      24     2     4     4     0     0  6.168273875E+01  3.616387500E+01 -1.182039703E+02  1.600787496E+02  8.087299530E+01  0.00000E+00  9.000E+00
     -11     1     6     6     0     0  5.980641249E+01  2.132661121E+01 -1.275239498E+02  1.424569728E+02  0.000000000E+00  0.00000E+00  9.000E+00
      12     1     6     6     0     0  1.876326259E+00  1.483726379E+01  9.319979584E+00  1.762177677E+01  1.025477084E-06  0.00000E+00  9.000E+00
      13     1     5     5     0     0 -9.550092567E+00  1.257505326E+01 -1.222582123E+02  1.232737065E+02  0.000000000E+00  0.00000E+00  9.000E+00
     -14     1     5     5     0     0 -4.665386664E+01 -6.816909463E+01 -1.528750918E+02  1.737653660E+02  1.907348633E-06  0.00000E+00  9.000E+00
       5     1     4     4   513     0  2.188716978E+01 -4.432699047E+01 -2.072537735E+02  2.131211379E+02  4.750000000E+00  0.00000E+00  9.000E+00
      -5     1     3     3     0   512 -7.565791482E+01  7.140901627E+00 -3.640247879E+01  8.439677431E+01  4.750000000E+00  0.00000E+00  9.000E+00
      21     1     1     2   501   511  4.823003687E+01  6.542531804E+01 -8.216020984E+01  1.155720934E+02  1.651812370E-06  0.00000E+00  9.000E+00
      21     1     4     4   507   513  5.768024678E+00 -7.382457738E+00 -3.837199471E+01  3.949912365E+01  4.768371582E-07  0.00000E+00  9.000E+00
      21     1     3     3   512   501 -5.706096041E+00 -1.426605086E+00 -3.465834415E+00  6.826913087E+00  4.214684851E-08  0.00000E+00  9.000E+00
#rwgt            1           6   2.2198064355575884                1     6959029           0       11011           0
<weights>
0.11427E+02
</weights>
</event>
<event>
     14  10001  1.35503E+01  7.51244E+00 -1.00000E+00  7.35816E-01
      -1    -1     0     0     0   501  0.000000000E+00  0.000000000E+00  2.852996456E+01  2.852996456E+01  0.000000000E+00  0.00000E+00  9.000E+00
       1    -1     0     0   512     0  0.000000000E+00  0.000000000E+00 -1.647594331E+03  1.647594331E+03  0.000000000E+00  0.00000E+00  9.000E+00
      -6     2     1     2     0   501 -6.592179336E+01 -2.567733486E+01 -3.923993250E+02  4.345540476E+02  1.727859416E+02  0.00000E+00  9.000E+00
       6     2     1     2   507     0  6.367429688E+01  1.850896384E+01 -1.189687834E+03  1.203837627E+03  1.716708861E+02  0.00000E+00  9.000E+00
     -24     2     3     3     0     0 -5.260347070E+01 -5.691661514E+00 -1.064859942E+02  1.475944683E+02  8.743763482E+01  0.00000E+00  9.000E+00
      24     2     4     4     0     0  3.859167779E+01  4.172195815E+00 -2.933172958E+02  3.069780243E+02  8.181531982E+01  0.00000E+00  9.000E+00
     -11     1     6     6     0     0  1.397442559E+01  4.263553155E+01 -1.487919266E+02  1.554094931E+02  0.000000000E+00  0.00000E+00  9.000E+00
      12     1     6     6     0     0  2.461725220E+01 -3.846333574E+01 -1.445253693E+02  1.515685312E+02  2.697398305E-06  0.00000E+00  9.000E+00
      13     1     5     5     0     0 -2.652289903E+01 -1.017968694E+01 -1.160336953E+02  1.194609085E+02  0.000000000E+00  0.00000E+00  9.000E+00
     -14     1     5     5     0     0 -2.608057167E+01  4.488025424E+00  9.547701189E+00  2.813355983E+01  4.575214639E-06  0.00000E+00  9.000E+00
       5     1     4     4   511     0  2.282667404E+01  1.418831680E+01 -8.415180036E+02  8.419604969E+02  4.750000000E+00  0.00000E+00  9.000E+00
      -5     1     3     3     0   501 -1.331832266E+01 -1.998567335E+01 -2.859133309E+02  2.869595793E+02  4.750000000E+00  0.00000E+00  9.000E+00
      21     1     1     2   512   507  2.247496475E+00  7.168371020E+00 -3.697720733E+01  3.773262044E+01  6.743495762E-07  0.00000E+00  9.000E+00
      21     1     4     4   507   511  2.255945055E+00  1.484512290E-01 -5.485253444E+01  5.489910619E+01  6.743495762E-07  0.00000E+00  9.000E+00
#rwgt            1           2   2.1000965546193311                1     6965008           0         110           0
<weights>
0.13022E+02
</weights>
</event>
<event>
     15  10001  1.35503E+01  4.10359E+01 -1.00000E+00  2.29956E-01
      21    -1     0     0   511   501  0.000000000E+00  0.000000000E+00  5.792680059E+02  5.792680059E+02  0.000000000E+00  0.00000E+00  9.000E+00
      21    -1     0     0   507   502  0.000000000E+00  0.000000000E+00 -6.219304481E+02  6.219304481E+02  0.000000000E+00  0.00000E+00  9.000E+00
      -6     2     1     2     0   501 -4.638521460E-01  7.391471687E+01  4.869750896E+02  5.218910613E+02  1.725164963E+02  0.00000E+00  9.000E+00
       6     2     1     2   507     0 -3.839610026E+01 -6.072959533E+01 -4.586835160E+01  1.938008911E+02  1.740475091E+02  0.00000E+00  9.000E+00
     -24     2     3     3     0     0  4.623208643E+01  2.012302609E+01  3.877816867E+02  3.994301096E+02  8.140905324E+01  0.00000E+00  9.000E+00
      24     2     4     4     0     0 -5.144363421E+01 -1.728344950E+01  3.082772415E+01  1.019931882E+02  8.066657752E+01  0.00000E+00  9.000E+00
     -11     1     6     6     0     0  1.493386365E+01 -2.524334985E+01  1.639033713E+01  3.359896049E+01  0.000000000E+00  0.00000E+00  9.000E+00
      12     1     6     6     0     0 -6.637749786E+01  7.959900351E+00  1.443738703E+01  6.839422768E+01  1.884864366E-06  0.00000E+00  9.000E+00
      13     1     5     5     0     0  2.111074273E+01  2.798381571E+01  3.578820958E+02  3.595947051E+02  0.000000000E+00  0.00000E+00  9.000E+00
     -14     1     5     5     0     0  2.512134370E+01 -7.860789617E+00  2.989959086E+01  3.983540456E+01  1.348699152E-06  0.00000E+00  9.000E+00
       5     1     4     4   512     0  6.965871095E-01 -3.539290021E+01 -5.430567446E+01  6.499854920E+01  4.750000000E+00  0.00000E+00  9.000E+00
      -5     1     3     3     0   513 -3.295965239E+01  3.314568063E+01  6.665669212E+01  8.155152932E+01  4.750000000E+00  0.00000E+00  9.000E+00
      21     1     1     2   511   502  3.885995241E+01 -1.318512154E+01 -4.837691802E+02  4.855065015E+02  0.000000000E+00  0.00000E+00  9.000E+00
      21     1     4     4   507   512  1.235094684E+01 -8.053245624E+00 -2.239040130E+01  2.680915372E+01  0.000000000E+00  0.00000E+00  9.000E+00
      21     1     3     3   513   501 -1.373628619E+01  2.064601014E+01  3.253671077E+01  4.090942239E+01  4.768371582E-07  0.00000E+00  9.000E+00
#rwgt            1          17   23.319155669757805                1     6969214           0       11011           0
<weights>
0.14719E+02
</weights>
</event>
<event>
     14  10001  1.35503E+01  3.88634E+02 -1.00000E+00  2.60157E-01
      21    -1     0     0   502   501  0.000000000E+00  0.000000000E+00  3.925237376E+02  3.925237376E+02  0.000000000E+00  0.00000E+00  9.000E+00
       2    -1     0     0   507     0  0.000000000E+00  0.000000000E+00 -1.437947800E+03  1.437947800E+03  0.000000000E+00  0.00000E+00  9.000E+00
      -6     2     1     2     0   501 -2.549266252E+01 -1.507040931E+02  7.924348382E+01  2.436858515E+02  1.724577193E+02  0.00000E+00  9.000E+00
       6     2     1     2   507     0 -4.878015997E+01 -2.307663139E+02  9.481034909E+01  3.068784782E+02  1.719092856E+02  0.00000E+00  9.000E+00
     -24     2     3     3     0     0  2.295687195E+01 -1.300093002E+02  1.010778464E+02  1.861299210E+02  8.365512739E+01  0.00000E+00  9.000E+00
      24     2     4     4     0     0 -2.353912467E+01 -1.898385204E+02  6.142155138E+00  2.058992464E+02  7.592113911E+01  0.00000E+00  9.000E+00
     -11     1     6     6     0     0 -8.574800333E+00 -1.070968312E-01 -1.196330514E+01  1.471935258E+01  0.000000000E+00  0.00000E+00  9.000E+00
      12     1     6     6     0     0 -1.496432434E+01 -1.897314236E+02  1.810546028E+01  1.911798938E+02  2.611744678E-06  0.00000E+00  9.000E+00
      13     1     5     5     0     0 -2.740928138E+01 -6.191649720E+01  6.568387396E+01  9.433606219E+01  0.000000000E+00  0.00000E+00  9.000E+00
     -14     1     5     5     0     0  5.036615334E+01 -6.809280305E+01  3.539397241E+01  9.179385879E+01  4.129530925E-06  0.00000E+00  9.000E+00
       5     1     4     4   507     0 -2.524103530E+01 -4.092779347E+01  8.866819395E+01  1.009792318E+02  4.750000000E+00  0.00000E+00  9.000E+00
      -5     1     3     3     0   511 -3.303600749E+01 -1.657677961E+01 -1.622260498E+01  4.064360743E+01  4.750000000E+00  0.00000E+00  9.000E+00
       2     1     1     2   502     0  7.427282250E+01  3.814704070E+02 -1.219477895E+03  1.279907208E+03  0.000000000E+00  0.00000E+00  9.000E+00
      21     1     3     3   511   501 -1.541352699E+01 -4.118013266E+00 -5.611757577E+00  1.691232304E+01  4.086288572E-07  0.00000E+00  9.000E+00
#rwgt            1          17   30.470206768310813                1     6974561           0         111           0
<weights>
0.14445E+02
</weights>
</event>
<event>
     14  10001  1.35503E+01  8.44186E+00 -1.00000E+00  7.51029E-01
       2    -1     0     0   502     0  0.000000000E+00  0.000000000E+00  1.145045918E+03  1.145045918E+03  0.000000000E+00  0.00000E+00  9.000E+00
      21    -1     0     0   507   502  0.000000000E+00  0.000000000E+00 -1.501468406E+02  1.501468406E+02  0.000000000E+00  0.00000E+00  9.000E+00
      -6     2     1     2     0   501  1.204557228E+02  2.525207484E+01  9.886630434E+01  2.563458013E+02  2.019687482E+02  0.00000E+00  9.000E+00
       6     2     1     2   507     0 -1.123453437E+02 -2.759446689E+01  7.423251175E+01  2.170033381E+02  1.679197787E+02  0.00000E+00  9.000E+00
     -24     2     3     3     0     0  2.351609301E+00  7.295525689E+01  4.533775651E+01  1.180994880E+02  8.101837643E+01  0.00000E+00  9.000E+00
      24     2     4     4     0     0 -1.313135567E+02 -3.131721310E+01  2.196649608E+01  1.596221458E+02  8.229632115E+01  0.00000E+00  9.000E+00
     -11     1     6     6     0     0 -6.029940120E+01 -4.940526145E+01 -1.196286570E+01  7.886702606E+01  0.000000000E+00  0.00000E+00  9.000E+00
      12     1     6     6     0     0 -7.101415547E+01  1.808804836E+01  3.392936179E+01  8.075511973E+01  1.168007728E-06  0.00000E+00  9.000E+00
      13     1     5     5     0     0 -7.064802467E+00  5.433794111E+01  6.797761279E+01  8.731253701E+01  0.000000000E+00  0.00000E+00  9.000E+00
     -14     1     5     5     0     0  9.416411767E+00  1.861731578E+01 -2.263985628E+01  3.078695097E+01  1.118282261E-06  0.00000E+00  9.000E+00
       5     1     4     4   511     0  1.534094064E+01  5.746476152E+00  2.818239090E+01  3.294201124E+01  4.750000000E+00  0.00000E+00  9.000E+00
      -5     1     3     3     0   501  1.181041135E+02 -4.770318206E+01  5.352854783E+01  1.382463133E+02  4.750000000E+00  0.00000E+00  9.000E+00
      21     1     4     4   507   511  3.627272364E+00 -2.023729948E+00  2.408362477E+01  2.443918104E+01  0.000000000E+00  0.00000E+00  9.000E+00
       2     1     1     2   501     0 -8.110379132E+00  2.342392055E+00  8.218002613E+02  8.218436192E+02  0.000000000E+00  0.00000E+00  9.000E+00
#rwgt            1          17   105.79234627430159                1     6984203           0        1001           0
<weights>
0.12932E+02
</weights>
</event>
<event>
     14  10001  1.35503E+01  9.29785E+00 -1.00000E+00  7.51154E-01
      -2    -1     0     0     0   512  0.000000000E+00  0.000000000E+00  2.445148309E+01  2.445148309E+01  0.000000000E+00  0.00000E+00  9.000E+00
       2    -1     0     0   507     0  0.000000000E+00  0.000000000E+00 -1.607025498E+03  1.607025498E+03  0.000000000E+00  0.00000E+00  9.000E+00
      -6     2     1     2     0   501 -3.596361974E+01  1.110204462E+01 -8.461290501E+02  8.642489763E+02  1.719746676E+02  0.00000E+00  9.000E+00
       6     2     1     2   507     0  3.365204949E+01 -2.010797118E+01 -5.010685204E+02  5.316679898E+02  1.733908830E+02  0.00000E+00  9.000E+00
     -24     2     3     3     0     0 -4.590808775E+01 -1.431272403E+01 -2.882706787E+02  3.057032504E+02  8.967768120E+01  0.00000E+00  9.000E+00
      24     2     4     4     0     0  8.705016047E+01 -5.359288826E+00 -2.972842745E+02  3.203688471E+02  8.155860404E+01  0.00000E+00  9.000E+00
     -11     1     6     6     0     0  4.484858476E+01 -3.717839026E+01 -9.628044103E+01  1.125324468E+02  0.000000000E+00  0.00000E+00  9.000E+00
      12     1     6     6     0     0  4.220157571E+01  3.181910143E+01 -2.010038335E+02  2.078364003E+02  3.814697266E-06  0.00000E+00  9.000E+00
      13     1     5     5     0     0 -4.404121487E+01 -3.469273357E+01 -2.764327579E+02  2.820607807E+02  0.000000000E+00  0.00000E+00  9.000E+00
     -14     1     5     5     0     0 -1.866872882E+00  2.038000954E+01 -1.183792078E+01  2.364246966E+01  1.599360450E-06  0.00000E+00  9.000E+00
       5     1     4     4   511     0 -4.194015074E+01 -1.049070045E+01 -1.648779181E+02  1.705178038E+02  4.750000000E+00  0.00000E+00  9.000E+00
      -5     1     3     3     0   501  9.944468005E+00  2.541476865E+01 -5.578583714E+02  5.585457259E+02  4.750000000E+00  0.00000E+00  9.000E+00
      21     1     1     2   501   512  2.311570253E+00  9.005926561E+00 -2.353764439E+02  2.355600145E+02  2.697398305E-06  0.00000E+00  9.000E+00
      21     1     4     4   507   511 -1.145796024E+01 -4.257981907E+00 -3.890632783E+01  4.078133897E+01  8.259061849E-07  0.00000E+00  9.000E+00
#rwgt            1           6   4.9387388586736378                1     6996752           0         110           0
<weights>
0.13572E+02
</weights>
</event>
<event>
     15  10001  1.35503E+01  4.10298E+01 -1.00000E+00  2.34479E-01
       2    -1     0     0   502     0  0.000000000E+00  0.000000000E+00  1.428840910E+03  1.428840910E+03  0.000000000E+00  0.00000E+00  9.000E+00
      21    -1     0     0   507   502  0.000000000E+00  0.000000000E+00 -1.784497991E+02  1.784497991E+02  0.000000000E+00  0.00000E+00  9.000E+00
      -6     2     1     2     0   501  8.923431852E+01 -1.433275686E+02  4.147129305E+02  4.798434064E+02  1.725031142E+02  0.00000E+00  9.000E+00
       6     2     1     2   507     0 -1.121335514E+02  1.773727106E+02 -1.633453643E+01  2.744472345E+02  1.761234103E+02  0.00000E+00  9.000E+00
     -24     2     3     3     0     0  6.778244206E+00 -4.799785221E+00  1.355819640E+02  1.573893998E+02  7.949824954E+01  0.00000E+00  9.000E+00
      24     2     4     4     0     0 -1.323392715E+02  1.726372744E+02 -1.488795736E+01  2.318438416E+02  7.882007561E+01  0.00000E+00  9.000E+00
     -11     1     6     6     0     0 -6.018036931E+01  7.986127564E+01  3.245577405E+01  1.051326660E+02  0.000000000E+00  0.00000E+00  9.000E+00
      12     1     6     6     0     0 -7.215890217E+01  9.277599877E+01 -4.734373140E+01  1.267111756E+02  1.784161275E-06  0.00000E+00  9.000E+00
      13     1     5     5     0     0  3.228909864E+01  2.483513040E+01  6.538507593E+01  7.703621063E+01  0.000000000E+00  0.00000E+00  9.000E+00
     -14     1     5     5     0     0 -2.551085444E+01 -2.963491563E+01  7.019688811E+01  8.035318922E+01  1.651812370E-06  0.00000E+00  9.000E+00
       5     1     4     4   512     0  1.619448777E+01 -1.292972504E+01 -8.856942982E+00  2.303143857E+01  4.750000000E+00  0.00000E+00  9.000E+00
      -5     1     3     3     0   511  5.191634989E+01 -9.025741700E+01  1.853318376E+02  2.126315151E+02  4.750000000E+00  0.00000E+00  9.000E+00
       2     1     1     2   501     0  2.289923291E+01 -3.404514200E+01  8.520127165E+02  8.530000678E+02  0.000000000E+00  0.00000E+00  9.000E+00
      21     1     4     4   507   512  4.011232282E+00  1.766516121E+01  7.410363903E+00  1.957195438E+01  2.230201594E-07  0.00000E+00  9.000E+00
      21     1     3     3   511   501  3.053972442E+01 -4.827036637E+01  9.379912885E+01  1.098224914E+02  1.348699152E-06  0.00000E+00  9.000E+00
#rwgt            1          17   19.669435468004536                1     6998107           0       11011           0
<weights>
0.14599E+02
</weights>
</event>
<event>
     15  10001 -1.35503E+01  3.71149E+01 -1.00000E+00  5.41675E-01
      21    -1     0     0   507   511  0.000000000E+00  0.000000000E+00  1.867872053E+02  1.867872053E+02  0.000000000E+00  0.00000E+00  9.000E+00
      21    -1     0     0   501   502  0.000000000E+00  0.000000000E+00 -1.655272488E+03  1.655272488E+03  0.000000000E+00  0.00000E+00  9.000E+00
      -6     2     1     2     0   502  2.943167368E+01 -1.383794619E+02 -1.551310770E+03  1.568689245E+03  1.849479463E+02  0.00000E+00  9.000E+00
       6     2     1     2   507     0 -6.421630825E+01  1.254355046E+02  6.438318614E+01  2.319260846E+02  1.725882789E+02  0.00000E+00  9.000E+00
     -24     2     3     3     0     0  7.313640946E+01 -9.194278937E+01 -1.344032348E+03  1.351531124E+03  8.006882065E+01  0.00000E+00  9.000E+00
      24     2     4     4     0     0 -7.226995807E+01  5.390602197E+01 -1.247057018E+01  1.210025332E+02  7.973262737E+01  0.00000E+00  9.000E+00
     -11     1     6     6     0     0  1.973902244E+00 -1.509695505E+01  8.586506024E+00  1.747977195E+01  0.000000000E+00  0.00000E+00  9.000E+00
      12     1     6     6     0     0 -7.424386031E+01  6.900297702E+01 -2.105707620E+01  1.035227612E+02  2.092114541E-06  0.00000E+00  9.000E+00
      13     1     5     5     0     0  3.422940805E+01  2.987253826E+00 -2.021541864E+02  2.050533861E+02  0.000000000E+00  0.00000E+00  9.000E+00
     -14     1     5     5     0     0  3.890700141E+01 -9.493004320E+01 -1.141878161E+03  1.146477738E+03  0.000000000E+00  0.00000E+00  9.000E+00
       5     1     4     4   513     0  1.126993051E+01  6.605137380E+01  5.110911177E+01  8.440674808E+01  4.750000000E+00  0.00000E+00  9.000E+00
      -5     1     3     3     0   512 -4.383542902E+01 -4.458836225E+01 -1.978602731E+02  2.075594301E+02  4.750000000E+00  0.00000E+00  9.000E+00
      21     1     1     2   501   511  3.478463457E+01  1.294395731E+01  1.844230105E+01  4.144436392E+01  1.092571186E-06  0.00000E+00  9.000E+00
      21     1     4     4   507   513 -3.216280690E+00  5.478108795E+00  2.574464454E+01  2.651680335E+01  1.215700987E-06  0.00000E+00  9.000E+00
      21     1     3     3   512   502  1.306932432E-01 -1.848310255E+00 -9.418149204E+00  9.598690846E+00  1.192092896E-07  0.00000E+00  9.000E+00
#rwgt            1          17  -12.789973531751997                1     7010407           0       11011           0
<weights>
-.16103E+02
</weights>
</event>
<event>
     15  10001 -1.35503E+01  3.05195E+01 -1.00000E+00  2.43719E-01
      21    -1     0     0   502   512  0.000000000E+00  0.000000000E+00  5.898847150E+02  5.898847150E+02  0.000000000E+00  0.00000E+00  9.000E+00
      21    -1     0     0   507   502  0.000000000E+00  0.000000000E+00 -2.023444799E+02  2.023444799E+02  0.000000000E+00  0.00000E+00  9.000E+00
      -6     2     1     2     0   501 -1.850315204E+02 -6.373175941E+01  3.994159653E+02  4.772929198E+02  1.731387225E+02  0.00000E+00  9.000E+00
       6     2     1     2   507     0  2.155461796E+02  6.427747088E+01 -1.598355475E+01  2.841415280E+02  1.728848899E+02  0.00000E+00  9.000E+00
     -24     2     3     3     0     0 -3.625369868E+01  3.373273268E+00  2.015376808E+02  2.205524879E+02  8.185507606E+01  0.00000E+00  9.000E+00
      24     2     4     4     0     0  1.583595893E+02  6.053962090E+01  4.334850297E+01  1.927613073E+02  8.083949324E+01  0.00000E+00  9.000E+00
     -11     1     6     6     0     0  1.094620617E+02 -5.589565262E-01  2.844224734E+01  1.130982618E+02  0.000000000E+00  0.00000E+00  9.000E+00
      12     1     6     6     0     0  4.889752764E+01  6.109857743E+01  1.490625563E+01  7.966304557E+01  3.094853159E-06  0.00000E+00  9.000E+00
      13     1     5     5     0     0 -6.181566583E+01  5.373649095E+00  1.614884680E+02  1.729987802E+02  0.000000000E+00  0.00000E+00  9.000E+00
     -14     1     5     5     0     0  2.556196715E+01 -2.000375827E+00  4.004921283E+01  4.755370771E+01  1.066240300E-06  0.00000E+00  9.000E+00
       5     1     4     4   511     0  5.293513602E+01  1.597818173E+01 -5.378880609E+01  7.728666817E+01  4.750000000E+00  0.00000E+00  9.000E+00
      -5     1     3     3     0   513 -1.230969589E+02 -5.160923712E+01  1.634097524E+02  2.110490093E+02  4.750000000E+00  0.00000E+00  9.000E+00
      21     1     1     2   501   512 -3.051465918E+01 -5.457114762E-01  4.107824582E+00  3.079474710E+01  9.955938511E-07  0.00000E+00  9.000E+00
      21     1     4     4   507   511  4.251454226E+00 -1.224033175E+01 -5.543251624E+00  1.409355253E+01  4.086288572E-07  0.00000E+00  9.000E+00
      21     1     3     3   513   501 -2.568086276E+01 -1.549579556E+01  3.446853211E+01  4.569142259E+01  4.768371582E-07  0.00000E+00  9.000E+00
#rwgt            1          17  -35.537428476669369                1     7017676           0       11011           0
<weights>
-.13214E+02
</weights>
</event>
<event>
     15  10001  1.35503E+01  9.72814E+00 -1.00000E+00  3.80225E-01
       2    -1     0     0   511     0  0.000000000E+00  0.000000000E+00  6.358027727E+01  6.358027727E+01  0.000000000E+00  0.00000E+00  9.000E+00
      -2    -1     0     0     0   502  0.000000000E+00  0.000000000E+00 -8.588440186E+02  8.588440186E+02  0.000000000E+00  0.00000E+00  9.000E+00
      -6     2     1     2     0   502 -4.215298370E+01 -2.440920014E+01 -2.462792694E+02  3.047975219E+02  1.728449241E+02  0.00000E+00  9.000E+00
       6     2     1     2   507     0  5.173211761E+01  2.610535667E+01 -2.066488255E+02  2.751529332E+02  1.721850688E+02  0.00000E+00  9.000E+00
     -24     2     3     3     0     0 -2.331369495E+01 -3.020945448E+01 -4.064475255E+01  9.812349627E+01  8.074704389E+01  0.00000E+00  9.000E+00
      24     2     4     4     0     0  8.172894080E-01  7.275292846E+01 -1.553627163E+02  1.888922633E+02  7.905097697E+01  0.00000E+00  9.000E+00
     -11     1     6     6     0     0  2.543140741E+01  3.033024032E+01 -1.885870109E+01  4.384439038E+01  0.000000000E+00  0.00000E+00  9.000E+00
      12     1     6     6     0     0 -2.461411800E+01  4.242268814E+01 -1.365040152E+02  1.450478729E+02  1.907348633E-06  0.00000E+00  9.000E+00
      13     1     5     5     0     0 -1.466250710E+01 -5.043485005E+00 -6.205848790E+01  6.396625498E+01  0.000000000E+00  0.00000E+00  9.000E+00
     -14     1     5     5     0     0 -8.651187847E+00 -2.516596948E+01  2.141373535E+01  3.415724129E+01  1.892388805E-06  0.00000E+00  9.000E+00
       5     1     4     4   514     0  4.858265868E+01 -4.523020229E+01 -5.003050554E+01  8.325659078E+01  4.750000000E+00  0.00000E+00  9.000E+00
      -5     1     3     3     0   512 -1.518548990E+01  6.074129031E+00 -1.713054882E+02  1.721500128E+02  4.750000000E+00  0.00000E+00  9.000E+00
      21     1     1     2   511   507 -9.579133904E+00 -1.696156532E+00 -3.423356464E+02  3.424738407E+02  6.607249480E-06  0.00000E+00  9.000E+00
      21     1     3     3   512   502 -3.653798855E+00 -2.738746881E-01 -3.432902867E+01  3.452401285E+01  1.168007728E-06  0.00000E+00  9.000E+00
      21     1     4     4   507   514  2.332169518E+00 -1.417369501E+00 -1.255603738E+00  3.004079178E+00  1.490116119E-08  0.00000E+00  9.000E+00
#rwgt            1           8  0.67967231132837280                1     7021742           0       11110           0
<weights>
0.45422E+01
</weights>
</event>
<event>
     15  10001  1.35503E+01  6.53106E+01 -1.00000E+00  3.01895E-01
      21    -1     0     0   502   501  0.000000000E+00  0.000000000E+00  4.515080924E+02  4.515080924E+02  0.000000000E+00  0.00000E+00  9.000E+00
      21    -1     0     0   507   512  0.000000000E+00  0.000000000E+00 -5.219769767E+02  5.219769767E+02  0.000000000E+00  0.00000E+00  9.000E+00
      -6     2     1     2     0   501 -2.193775623E+02 -2.584569930E+01  2.740400100E+02  3.923939882E+02  1.734375964E+02  0.00000E+00  9.000E+00
       6     2     1     2   507     0  2.777031944E+02 -3.541326644E+00 -1.210720683E+02  3.483047157E+02  1.718316738E+02  0.00000E+00  9.000E+00
     -24     2     3     3     0     0 -1.015360152E+02 -6.833026962E+01  1.939332079E+02  2.425025306E+02  7.885936909E+01  0.00000E+00  9.000E+00
      24     2     4     4     0     0  6.481783412E+01  4.912528304E+00 -7.675859997E+01  1.304403849E+02  8.305014624E+01  0.00000E+00  9.000E+00
     -11     1     6     6     0     0  1.955211609E+01 -4.204156934E+00 -8.159777755E+01  8.401284116E+01  0.000000000E+00  0.00000E+00  9.000E+00
      12     1     6     6     0     0  4.526571803E+01  9.116685238E+00  4.839177575E+00  4.642754374E+01  2.483447392E-06  0.00000E+00  9.000E+00
      13     1     5     5     0     0 -7.959624205E+01 -1.401065735E+01  7.657739160E+01  1.113371329E+02  0.000000000E+00  0.00000E+00  9.000E+00
     -14     1     5     5     0     0 -2.193977317E+01 -5.431961227E+01  1.173558163E+02  1.311653977E+02  6.877043296E-06  0.00000E+00  9.000E+00
       5     1     4     4   511     0  1.859943614E+02 -7.190896143E+00 -3.558379469E+01  1.895636579E+02  4.750000000E+00  0.00000E+00  9.000E+00
      -5     1     3     3     0   513 -1.168688139E+02  4.237773938E+01  7.625288440E+01  1.459152402E+02  4.750000000E+00  0.00000E+00  9.000E+00
      21     1     1     2   502   512 -5.832563204E+01  2.938702594E+01 -2.234368260E+02  2.327863653E+02  2.697398305E-06  0.00000E+00  9.000E+00
      21     1     4     4   507   511  2.689099886E+01 -1.262958805E+00 -8.729673651E+00  2.830067290E+01  1.046057270E-06  0.00000E+00  9.000E+00
      21     1     3     3   513   501 -9.727332500E-01  1.068309437E-01  3.853917673E+00  3.976217330E+00  8.429369702E-08  0.00000E+00  9.000E+00
#rwgt            1          17   2.0334064714565185                1     7031096           0       11011           0
<weights>
0.18522E+02
</weights>
</event>
<event>
     14  10001  1.35503E+01  4.11928E+01 -1.00000E+00  1.99563E-01
      21    -1     0     0   502   501  0.000000000E+00  0.000000000E+00  2.625940444E+02  2.625940444E+02  0.000000000E+00  0.00000E+00  9.000E+00
       2    -1     0     0   507     0  0.000000000E+00  0.000000000E+00 -3.094500023E+02  3.094500023E+02  0.000000000E+00  0.00000E+00  9.000E+00
      -6     2     1     2     0   501  4.308915854E+00 -1.060472448E+02  1.205292597E+02  2.348132824E+02  1.713049627E+02  0.00000E+00  9.000E+00
       6     2     1     2   507     0 -4.503139404E+01  1.122543393E+02 -5.536779158E+01  2.178793840E+02  1.725600489E+02  0.00000E+00  9.000E+00
     -24     2     3     3     0     0 -3.287611998E+00 -1.419218601E+02  9.743405040E+01  1.890621422E+02  7.809274391E+01  0.00000E+00  9.000E+00
      24     2     4     4     0     0 -4.587364096E+00 -5.538130056E+00 -4.497538482E+01  9.281400102E+01  8.086988779E+01  0.00000E+00  9.000E+00
     -11     1     6     6     0     0 -4.208964919E+01 -5.817801046E+00 -3.176916831E+01  5.305342056E+01  0.000000000E+00  0.00000E+00  9.000E+00
      12     1     6     6     0     0  3.750228510E+01  2.796709902E-01 -1.320621651E+01  3.976058045E+01  7.907449699E-07  0.00000E+00  9.000E+00
      13     1     5     5     0     0  2.568085273E+01 -7.886891228E+01  8.463460270E+01  1.185024367E+02  0.000000000E+00  0.00000E+00  9.000E+00
     -14     1     5     5     0     0 -2.896846472E+01 -6.305294782E+01  1.279944770E+01  7.055970549E+01  2.494865601E-06  0.00000E+00  9.000E+00
       5     1     4     4   507     0 -4.044402994E+01  1.177924694E+02 -1.039240676E+01  1.250653830E+02  4.750000000E+00  0.00000E+00  9.000E+00
      -5     1     3     3     0   512  1.149153138E+00  2.575665098E+01  1.018030981E+01  2.812342139E+01  4.750000000E+00  0.00000E+00  9.000E+00
       2     1     1     2   502     0  4.072247819E+01 -6.207094517E+00 -1.120174260E+02  1.193513803E+02  0.000000000E+00  0.00000E+00  9.000E+00
      21     1     3     3   512   501  6.447374713E+00  1.011796432E+01  1.291489946E+01  1.762771882E+01  4.129530925E-07  0.00000E+00  9.000E+00
#rwgt            1          17   39.322977923578868                1     7037793           0         111           0
<weights>
0.18694E+02
</weights>
</event>
<event>
     15  10001 -1.35503E+01  2.29839E+01 -1.00000E+00  6.19460E-01
      21    -1     0     0   507   501  0.000000000E+00  0.000000000E+00  6.508451775E+02  6.508451775E+02  0.000000000E+00  0.00000E+00  9.000E+00
      21    -1     0     0   501   511  0.000000000E+00  0.000000000E+00 -1.060259551E+02  1.060259551E+02  0.000000000E+00  0.00000E+00  9.000E+00
      -6     2     1     2     0   502 -1.726624248E+01 -1.609927433E+02  1.475830236E+02  2.785175813E+02  1.719724038E+02  0.00000E+00  9.000E+00
       6     2     1     2   507     0  4.011282817E+01  1.635013298E+02  3.385796761E+02  4.153547645E+02  1.718768729E+02  0.00000E+00  9.000E+00
     -24     2     3     3     0     0  4.570615714E+01 -5.505066502E+01  9.720460850E+01  1.447753629E+02  7.994711543E+01  0.00000E+00  9.000E+00
      24     2     4     4     0     0  4.432739089E+01  1.152916762E+02  3.345498403E+02  3.655694247E+02  8.037611861E+01  0.00000E+00  9.000E+00
     -11     1     6     6     0     0  6.302361688E+01  7.278561071E+01  2.649465796E+02  2.818978742E+02  0.000000000E+00  0.00000E+00  9.000E+00
      12     1     6     6     0     0 -1.869622599E+01  4.250606550E+01  6.960326071E+01  8.367155056E+01  1.651812370E-06  0.00000E+00  9.000E+00
      13     1     5     5     0     0  3.848482444E+01 -2.657769697E+01  3.872977261E+00  4.693032752E+01  0.000000000E+00  0.00000E+00  9.000E+00
     -14     1     5     5     0     0  7.221332700E+00 -2.847296806E+01  9.333163124E+01  9.784503537E+01  1.348699152E-06  0.00000E+00  9.000E+00
       5     1     4     4   513     0 -2.904324110E+00  3.868955474E+01 -6.567427738E-01  3.909361272E+01  4.750000000E+00  0.00000E+00  9.000E+00
      -5     1     3     3     0   512 -6.343513867E+01 -1.054727923E+02  4.977345457E+01  1.328476045E+02  4.750000000E+00  0.00000E+00  9.000E+00
      21     1     1     2   502   511 -2.284658568E+01 -2.508586491E+00  5.865652273E+01  6.299878683E+01  1.168007728E-06  0.00000E+00  9.000E+00
      21     1     4     4   507   513 -1.310238615E+00  9.520098888E+00  4.686578547E+00  1.069172701E+01  2.665600750E-07  0.00000E+00  9.000E+00
      21     1     3     3   512   502  4.627390446E-01 -4.692859989E-01  6.049605306E-01  8.946138920E-01  1.666000469E-08  0.00000E+00  9.000E+00
#rwgt            1          17  -22.359347494200083                1     7046503           0       11011           0
<weights>
-.13626E+02
</weights>
</event>
<event>
     15  10001  1.35503E+01  3.56452E+01 -1.00000E+00  4.83307E-01
       1    -1     0     0   502     0  0.000000000E+00  0.000000000E+00  2.542441066E+03  2.542441066E+03  0.000000000E+00  0.00000E+00  9.000E+00
      21    -1     0     0   507   502  0.000000000E+00  0.000000000E+00 -2.847669751E+02  2.847669751E+02  0.000000000E+00  0.00000E+00  9.000E+00
      -6     2     1     2     0   501 -2.253073209E+02  1.490193516E+01  5.709573148E+02  6.380099547E+02  1.734329565E+02  0.00000E+00  9.000E+00
       6     2     1     2   507     0  2.608065993E+02 -1.812437668E+01 -1.532742685E+02  3.488618055E+02  1.728090932E+02  0.00000E+00  9.000E+00
     -24     2     3     3     0     0 -1.724424477E+02  4.579928873E+01  5.264832077E+02  5.616910210E+02  8.048765371E+01  0.00000E+00  9.000E+00
      24     2     4     4     0     0  1.534532613E+02 -7.780755867E+01 -1.078603415E+02  2.171164810E+02  7.683614693E+01  0.00000E+00  9.000E+00
     -11     1     6     6     0     0  9.140133640E+01 -4.675951026E+01 -1.061966815E+02  1.477104981E+02  0.000000000E+00  0.00000E+00  9.000E+00
      12     1     6     6     0     0  6.205192491E+01 -3.104804841E+01 -1.663659954E+00  6.940598288E+01  1.577975982E-06  0.00000E+00  9.000E+00
      13     1     5     5     0     0 -3.680472739E+01  4.710491896E+01  1.467464065E+02  1.584549437E+02  0.000000000E+00  0.00000E+00  9.000E+00
     -14     1     5     5     0     0 -1.356377203E+02 -1.305630223E+00  3.797368012E+02  4.032360773E+02  1.206313194E-05  0.00000E+00  9.000E+00
       5     1     4     4   511     0  1.077093204E+02  5.931503944E+01 -4.482143365E+01  1.309621892E+02  4.750000000E+00  0.00000E+00  9.000E+00
      -5     1     3     3     0   513 -5.309878638E+01 -3.090207560E+01  4.458708587E+01  7.605912251E+01  4.750000000E+00  0.00000E+00  9.000E+00
       1     1     1     2   501     0 -3.549927840E+01  3.222441518E+00  1.839991045E+03  1.840336281E+03  0.000000000E+00  0.00000E+00  9.000E+00
      21     1     4     4   507   511 -3.559823708E-01  3.681425493E-01 -5.924933983E-01  7.831352450E-01  2.787751993E-08  0.00000E+00  9.000E+00
      21     1     3     3   513   501  2.339131476E-01  4.722032541E-03 -1.129787807E-01  2.598112066E-01  3.017830056E-08  0.00000E+00  9.000E+00
#rwgt            1          17   12.755406860338356                1     7054722           0       11011           0
<weights>
0.17519E+02
</weights>
</event>
<event>
     15  10001  1.35503E+01  6.29441E+01 -1.00000E+00  2.66960E-01
      21    -1     0     0   507   501  0.000000000E+00  0.000000000E+00  1.350684577E+02  1.350684577E+02  0.000000000E+00  0.00000E+00  9.000E+00
      -1    -1     0     0     0   502  0.000000000E+00  0.000000000E+00 -1.110812077E+03  1.110812077E+03  0.000000000E+00  0.00000E+00  9.000E+00
      -6     2     1     2     0   502  6.340481405E+00  4.661080953E+01 -4.984848291E+01  1.869169933E+02  1.738974464E+02  0.00000E+00  9.000E+00
       6     2     1     2   507     0  3.593060012E+01 -9.324897681E+01 -8.295083628E+01  2.136724341E+02  1.696722964E+02  0.00000E+00  9.000E+00
     -24     2     3     3     0     0 -9.548500545E+00 -3.097557874E+01  1.061870535E+01  8.689983860E+01  7.992599517E+01  0.00000E+00  9.000E+00
      24     2     4     4     0     0  5.533453776E+01 -8.872836536E+01 -1.150193025E+02  1.742240631E+02  7.867623738E+01  0.00000E+00  9.000E+00
     -11     1     6     6     0     0  4.436278740E+01 -1.031372661E+02 -9.358199787E+01  1.461606749E+02  0.000000000E+00  0.00000E+00  9.000E+00
      12     1     6     6     0     0  1.097175036E+01  1.440890076E+01 -2.143730459E+01  2.806338816E+01  4.768371582E-07  0.00000E+00  9.000E+00
      13     1     5     5     0     0  1.627636994E+01  1.563984022E+01 -1.566888472E+01  2.747796879E+01  0.000000000E+00  0.00000E+00  9.000E+00
     -14     1     5     5     0     0 -2.582487048E+01 -4.661541896E+01  2.628759007E+01  5.942186981E+01  3.724217260E-06  0.00000E+00  9.000E+00
       5     1     4     4   512     0 -1.717171081E+01 -7.070654229E+00  2.956432395E+01  3.523455057E+01  4.750000000E+00  0.00000E+00  9.000E+00
      -5     1     3     3     0   511  1.496627931E+01  5.951521119E+01 -4.771829292E+01  7.788226922E+01  4.750000000E+00  0.00000E+00  9.000E+00
      -1     1     1     2     0   501 -4.227108153E+01  4.663816728E+01 -8.429442999E+02  8.452911071E+02  0.000000000E+00  0.00000E+00  9.000E+00
      21     1     4     4   507   512 -2.232226830E+00  2.550042781E+00  2.504142229E+00  4.213820488E+00  1.954268969E-07  0.00000E+00  9.000E+00
      21     1     3     3   511   502  9.227026383E-01  1.807117708E+01 -1.274889534E+01  2.213488544E+01  2.920019320E-07  0.00000E+00  9.000E+00
#rwgt            1          17   3.5862685407186867                1     7063966           0       11011           0
<weights>
0.16324E+02
</weights>
</event>
<event>
     15  10001  1.35503E+01  1.54168E+02 -1.00000E+00  2.46448E-01
      21    -1     0     0   511   501  0.000000000E+00  0.000000000E+00  1.542217480E+03  1.542217480E+03  0.000000000E+00  0.00000E+00  9.000E+00
      21    -1     0     0   507   502  0.000000000E+00  0.000000000E+00 -4.666244913E+02  4.666244913E+02  0.000000000E+00  0.00000E+00  9.000E+00
      -6     2     1     2     0   501  2.448102165E+02  8.853732742E+01  1.245517882E+03  1.284193194E+03  1.733968428E+02  0.00000E+00  9.000E+00
       6     2     1     2   507     0 -3.657620148E+02  7.057444615E+00  9.749047925E+01  4.159763301E+02  1.723376183E+02  0.00000E+00  9.000E+00
     -24     2     3     3     0     0  2.082905977E+02  8.048710578E+01  1.206508947E+03  1.229613812E+03  8.014448520E+01  0.00000E+00  9.000E+00
      24     2     4     4     0     0 -1.911497488E+02  4.606090385E+01 -9.702546866E-01  2.114350113E+02  7.774309782E+01  0.00000E+00  9.000E+00
     -11     1     6     6     0     0 -1.239894256E+02 -9.381723423E+00 -7.977453121E-01  1.243464144E+02  0.000000000E+00  0.00000E+00  9.000E+00
      12     1     6     6     0     0 -6.716032327E+01  5.544262727E+01 -1.725093745E-01  8.708859684E+01  1.745521133E-06  0.00000E+00  9.000E+00
      13     1     5     5     0     0  1.512031657E+02  7.885202393E+01  7.278484200E+02  7.475582663E+02  0.000000000E+00  0.00000E+00  9.000E+00
     -14     1     5     5     0     0  5.708743197E+01  1.635081843E+00  4.786605272E+02  4.820555452E+02  9.344061824E-06  0.00000E+00  9.000E+00
       5     1     4     4   512     0 -1.744028558E+02 -3.907634980E+01  9.768747215E+01  2.037368939E+02  4.750000000E+00  0.00000E+00  9.000E+00
      -5     1     3     3     0   513  2.001148766E+01  2.925093042E+00  1.918713350E+01  2.827939885E+01  4.750000000E+00  0.00000E+00  9.000E+00
      21     1     1     2   511   502  1.209517983E+02 -9.559477204E+01 -2.674153727E+02  3.086724469E+02  9.344061824E-06  0.00000E+00  9.000E+00
      21     1     3     3   513   501  1.650813116E+01  5.125128601E+00  1.982180102E+01  2.629998352E+01  7.907449699E-07  0.00000E+00  9.000E+00
      21     1     4     4   507   512 -2.094101399E-01  7.289056584E-02  7.732617920E-01  8.044249128E-01  2.356080458E-08  0.00000E+00  9.000E+00
#rwgt            1          17   1.6378061098097205                1     7070381           0       11110           0
<weights>
0.49335E+02
</weights>
</event>
<event>
     15  10001  1.35503E+01  2.76015E+01 -1.00000E+00  4.44993E-01
      21    -1     0     0   502   501  0.000000000E+00  0.000000000E+00  7.384087825E+01  7.384087825E+01  0.000000000E+00  0.00000E+00  9.000E+00
      21    -1     0     0   507   512  0.000000000E+00  0.000000000E+00 -5.857563323E+02  5.857563323E+02  0.000000000E+00  0.00000E+00  9.000E+00
      -6     2     1     2     0   501 -5.642694956E+00  7.851177913E+01 -1.481590521E+02  2.404263822E+02  1.722144043E+02  0.00000E+00  9.000E+00
       6     2     1     2   507     0 -3.760507964E+00 -5.256138895E+01 -3.048321946E+02  3.541023629E+02  1.723048913E+02  0.00000E+00  9.000E+00
     -24     2     3     3     0     0 -2.802462731E+01  6.482617945E+01 -2.124445926E+01  1.100435117E+02  8.167272584E+01  0.00000E+00  9.000E+00
      24     2     4     4     0     0  1.504217827E+01 -4.120839946E+01 -6.311439119E+01  1.112571280E+02  8.043831698E+01  0.00000E+00  9.000E+00
     -11     1     6     6     0     0 -3.319215118E+01 -2.127055475E+01 -2.785616881E+01  4.827133248E+01  0.000000000E+00  0.00000E+00  9.000E+00
      12     1     6     6     0     0  4.823432945E+01 -1.993784471E+01 -3.525822238E+01  6.298579550E+01  2.236564522E-06  0.00000E+00  9.000E+00
      13     1     5     5     0     0  5.867248936E+00  1.842362096E+01  2.823051769E+01  3.421719668E+01  0.000000000E+00  0.00000E+00  9.000E+00
     -14     1     5     5     0     0 -3.389187624E+01  4.640255849E+01 -4.947497695E+01  7.582631505E+01  6.743495762E-07  0.00000E+00  9.000E+00
       5     1     4     4   513     0 -1.818760904E+01 -9.357175112E+00 -2.285858925E+02  2.295482925E+02  4.750000000E+00  0.00000E+00  9.000E+00
      -5     1     3     3     0   511  2.238979787E+01  1.376340701E+01 -1.272581574E+02  1.300305177E+02  4.750000000E+00  0.00000E+00  9.000E+00
      21     1     1     2   502   512  9.403202921E+00 -2.595039018E+01 -5.892420741E+01  6.506846544E+01  1.907348633E-06  0.00000E+00  9.000E+00
      21     1     3     3   511   501 -7.865517170E-03 -7.780732870E-02  3.435645477E-01  3.523527284E-01  1.535976539E-08  0.00000E+00  9.000E+00
      21     1     4     4   507   513 -6.150771927E-01 -1.995814373E+00 -1.313191089E+01  1.329694246E+01  0.000000000E+00  0.00000E+00  9.000E+00
#rwgt            1          17   49.094668496392245                1     7085600           0       11110           0
<weights>
0.13136E+02
</weights>
</event>
<event>
     15  10001  1.35503E+01  2.13755E+00 -1.00000E+00  2.08190E-01
       1    -1     0     0   512     0  0.000000000E+00  0.000000000E+00  1.722764622E+03  1.722764622E+03  0.000000000E+00  0.00000E+00  9.000E+00
      -1    -1     0     0     0   502  0.000000000E+00  0.000000000E+00 -7.451017232E+01  7.451017232E+01  0.000000000E+00  0.00000E+00  9.000E+00
      -6     2     1     2     0   502 -1.155378798E+02  2.204233974E+02  1.125054580E+03  1.164950078E+03  1.715383322E+02  0.00000E+00  9.000E+00
       6     2     1     2   507     0  1.165088288E+02 -2.223276993E+02  5.374707892E+02  6.178946009E+02  1.729594620E+02  0.00000E+00  9.000E+00
     -24     2     3     3     0     0 -1.073229459E+02  1.851622024E+02  1.091029753E+03  1.114548652E+03  7.790711948E+01  0.00000E+00  9.000E+00
      24     2     4     4     0     0  9.005379223E+01 -1.143425947E+02  4.378363659E+02  4.682129959E+02  7.961665554E+01  0.00000E+00  9.000E+00
     -11     1     6     6     0     0  7.479510287E+01 -1.146927246E+02  3.028382806E+02  3.323548596E+02  0.000000000E+00  0.00000E+00  9.000E+00
      12     1     6     6     0     0  1.525868936E+01  3.501299117E-01  1.349980852E+02  1.358581363E+02  1.907348633E-06  0.00000E+00  9.000E+00
      13     1     5     5     0     0 -4.315800210E+01  1.863893318E+01  1.695019891E+02  1.759003903E+02  0.000000000E+00  0.00000E+00  9.000E+00
     -14     1     5     5     0     0 -6.416494378E+01  1.665232692E+02  9.215277642E+02  9.386482618E+02  1.078959322E-05  0.00000E+00  9.000E+00
       5     1     4     4   514     0  2.715009436E+01 -1.069065046E+02  9.819154648E+01  1.477507044E+02  4.750000000E+00  0.00000E+00  9.000E+00
      -5     1     3     3     0   511 -4.961048998E+00  1.875814510E+01  2.205297361E+01  2.975527113E+01  4.750000000E+00  0.00000E+00  9.000E+00
      21     1     3     3   511   502 -3.253884906E+00  1.650304995E+01  1.197185310E+01  2.064615439E+01  8.596304120E-07  0.00000E+00  9.000E+00
      21     1     1     2   512   507 -9.709490471E-01  1.904301907E+00 -1.427091938E+01  1.443011600E+01  5.057621821E-07  0.00000E+00  9.000E+00
      21     1     4     4   507   514 -6.950577542E-01 -1.078600072E+00  1.442876826E+00  1.930900550E+00  2.980232239E-08  0.00000E+00  9.000E+00
#rwgt            1           4  0.70154337766192842                1     7096392           0      110110           0
<weights>
0.60713E+01
</weights>
</event>
<event>
     15  10001  1.35503E+01  1.09043E+01 -1.00000E+00  2.96657E-01
      21    -1     0     0   512   501  0.000000000E+00  0.000000000E+00  6.897462746E+01  6.897462746E+01  0.000000000E+00  0.00000E+00  9.000E+00
      21    -1     0     0   501   502  0.000000000E+00  0.000000000E+00 -1.244569304E+03  1.244569304E+03  0.000000000E+00  0.00000E+00  9.000E+00
      -6     2     1     2     0   502  6.232627794E-01  1.667090917E+02 -9.157066963E+02  9.467702012E+02  1.733861309E+02  0.00000E+00  9.000E+00
       6     2     1     2   507     0  4.226746425E+00 -1.764754537E+02 -2.423548770E+02  3.461263545E+02  1.729338479E+02  0.00000E+00  9.000E+00
     -24     2     3     3     0     0 -2.322243408E+01  1.857138299E+02 -7.334597370E+02  7.615247612E+02  8.323381561E+01  0.00000E+00  9.000E+00
      24     2     4     4     0     0 -4.157383667E+01 -9.563436243E+01 -6.869488684E+01  1.489085370E+02  8.111997123E+01  0.00000E+00  9.000E+00
     -11     1     6     6     0     0 -1.896835808E+01 -1.046577837E+02 -6.395941938E+01  1.241122783E+02  0.000000000E+00  0.00000E+00  9.000E+00
      12     1     6     6     0     0 -2.260547859E+01  9.023421241E+00 -4.735467454E+00  2.479625869E+01  3.722308873E-07  0.00000E+00  9.000E+00
      13     1     5     5     0     0 -5.106409353E+01  1.486808637E+02 -5.999477530E+02  6.202022632E+02  0.000000000E+00  0.00000E+00  9.000E+00
     -14     1     5     5     0     0  2.784165944E+01  3.703296612E+01 -1.335119840E+02  1.413224981E+02  2.697398305E-06  0.00000E+00  9.000E+00
       5     1     4     4   513     0  4.302180970E+01 -7.600517806E+01 -1.671016186E+02  1.886085275E+02  4.750000000E+00  0.00000E+00  9.000E+00
      -5     1     3     3     0   511  2.048513553E+01 -2.019546266E+01 -1.703033979E+02  1.727810966E+02  4.750000000E+00  0.00000E+00  9.000E+00
      21     1     1     2   512   507 -4.850009205E+00  9.766361981E+00 -1.753310291E+01  2.064737545E+01  0.000000000E+00  0.00000E+00  9.000E+00
      21     1     3     3   511   502  3.360561326E+00  1.190724521E+00 -1.194356137E+01  1.246434336E+01  1.685873940E-07  0.00000E+00  9.000E+00
      21     1     4     4   507   513  2.778773402E+00 -4.835913210E+00 -6.558371579E+00  8.609290097E+00  0.000000000E+00  0.00000E+00  9.000E+00
#rwgt            1          17   5.9660107379095875                1     7097605           0       11110           0
<weights>
0.12394E+02
</weights>
</event>
<event>
     15  10001  1.35503E+01  1.04968E+01 -1.00000E+00  1.21066E-01
      21    -1     0     0   512   501  0.000000000E+00  0.000000000E+00  1.648641486E+02  1.648641486E+02  0.000000000E+00  0.00000E+00  9.000E+00
      21    -1     0     0   507   502  0.000000000E+00  0.000000000E+00 -2.613572992E+02  2.613572992E+02  0.000000000E+00  0.00000E+00  9.000E+00
      -6     2     1     2     0   501 -1.304203126E+01  4.361375879E+01 -1.115338787E+02  2.101673536E+02  1.722157248E+02  0.00000E+00  9.000E+00
       6     2     1     2   507     0  2.903092297E+00 -4.089641832E+01  4.785132902E+01  1.816053270E+02  1.703226354E+02  0.00000E+00  9.000E+00
     -24     2     3     3     0     0 -3.306061279E+01  2.764719631E+01 -1.224099080E+02  1.519106471E+02  7.896383687E+01  0.00000E+00  9.000E+00
      24     2     4     4     0     0  2.457274282E+01 -6.169400316E+01 -2.145266388E+01  1.057968505E+02  7.951595486E+01  0.00000E+00  9.000E+00
     -11     1     6     6     0     0 -6.454197611E+00 -6.874420791E+01 -3.211836771E+00  6.912118838E+01  0.000000000E+00  0.00000E+00  9.000E+00
      12     1     6     6     0     0  3.102694043E+01  7.050204753E+00 -1.824082710E+01  3.667566213E+01  4.129530925E-07  0.00000E+00  9.000E+00
      13     1     5     5     0     0 -5.609277460E+01  3.540184658E+00 -8.372615522E+01  1.008414664E+02  0.000000000E+00  0.00000E+00  9.000E+00
     -14     1     5     5     0     0  2.303216181E+01  2.410701166E+01 -3.868375277E+01  5.106918070E+01  4.768371582E-07  0.00000E+00  9.000E+00
       5     1     4     4   514     0 -1.799490883E+01  1.912198981E+01  6.023540756E+01  6.588121175E+01  4.750000000E+00  0.00000E+00  9.000E+00
      -5     1     3     3     0   511 -1.212259291E+01  3.660594698E+00 -1.103669361E+01  1.745646923E+01  4.750000000E+00  0.00000E+00  9.000E+00
      21     1     3     3   511   501  3.214117443E+01  1.230596778E+01  2.191272293E+01  4.080023729E+01  8.596304120E-07  0.00000E+00  9.000E+00
      21     1     1     2   512   502  1.013893897E+01 -2.717340464E+00 -3.281060102E+01  3.444876720E+01  8.259061849E-07  0.00000E+00  9.000E+00
      21     1     4     4   507   514 -3.674741695E+00  1.675595027E+00  9.068585339E+00  9.927264742E+00  2.064765462E-07  0.00000E+00  9.000E+00
#rwgt            1          17   28.613623746912236                1     7110326           0      110110           0
<weights>
0.13288E+02
</weights>
</event>
<event>
     15  10001  1.35503E+01  1.75349E+01 -1.00000E+00  2.15341E-01
      21    -1     0     0   507   511  0.000000000E+00  0.000000000E+00  2.794867609E+03  2.794867609E+03  0.000000000E+00  0.00000E+00  9.000E+00
      21    -1     0     0   501   502  0.000000000E+00  0.000000000E+00 -2.789960792E+01  2.789960792E+01  0.000000000E+00  0.00000E+00  9.000E+00
      -6     2     1     2     0   502 -4.388770089E+01  8.147993244E+01  1.051842189E+03  1.071653670E+03  1.830423114E+02  0.00000E+00  9.000E+00
       6     2     1     2   507     0  6.019550186E+01 -8.792413539E+01  5.574198185E+02  5.932747675E+02  1.729275676E+02  0.00000E+00  9.000E+00
     -24     2     3     3     0     0  4.396802546E+01  6.560192166E+01  6.450228154E+02  6.546773925E+02  7.944341678E+01  0.00000E+00  9.000E+00
      24     2     4     4     0     0  1.152392218E+01 -8.313118491E+01  5.055691754E+02  5.186369693E+02  7.962738295E+01  0.00000E+00  9.000E+00
     -11     1     6     6     0     0  2.262352923E+01 -3.691474114E+01  8.500913778E+01  9.539955814E+01  0.000000000E+00  0.00000E+00  9.000E+00
      12     1     6     6     0     0 -1.109960705E+01 -4.621644377E+01  4.205600376E+02  4.232374111E+02  9.344061824E-06  0.00000E+00  9.000E+00
      13     1     5     5     0     0  4.412686108E+01 -2.041250790E+00  2.359107111E+02  2.400108543E+02  0.000000000E+00  0.00000E+00  9.000E+00
     -14     1     5     5     0     0 -1.588356229E-01  6.764317245E+01  4.091121043E+02  4.146665382E+02  7.629394531E-06  0.00000E+00  9.000E+00
       5     1     4     4   512     0  2.683162826E+01  1.573677833E-01  4.224445423E+01  5.027044313E+01  4.750000000E+00  0.00000E+00  9.000E+00
      -5     1     3     3     0   513 -7.908016725E+01  1.566184109E+01  3.337314233E+02  3.433630608E+02  4.750000000E+00  0.00000E+00  9.000E+00
      21     1     4     4   507   512  2.183995141E+01 -4.950318269E+00  9.606188938E+00  2.436735510E+01  1.221531721E-06  0.00000E+00  9.000E+00
      21     1     1     2   501   511 -1.630780097E+01  6.444202951E+00  1.157705993E+03  1.157838779E+03  1.525878906E-05  0.00000E+00  9.000E+00
      21     1     3     3   513   502 -8.775559098E+00  2.161696929E-01  7.308795066E+01  7.361321687E+01  1.348699152E-06  0.00000E+00  9.000E+00
#rwgt            1          17   33.605202415831151                1     7119539           0      100111           0
<weights>
0.13696E+02
</weights>
</event>
<event>
     14  10001  1.35503E+01  1.04510E+01 -1.00000E+00  7.44846E-01
      21    -1     0     0   511   501  0.000000000E+00  0.000000000E+00  3.597024339E+02  3.597024339E+02  0.000000000E+00  0.00000E+00  9.000E+00
      21    -1     0     0   501   502  0.000000000E+00  0.000000000E+00 -6.987014438E+01  6.987014438E+01  0.000000000E+00  0.00000E+00  9.000E+00
      -6     2     1     2     0   502 -3.667442016E+00  1.640887326E+01  1.243096390E+02  2.129358895E+02  1.720642480E+02  0.00000E+00  9.000E+00
       6     2     1     2   507     0  1.193874885E+01 -2.279709999E+01  1.687636194E+02  2.056946672E+02  1.147470932E+02  0.00000E+00  9.000E+00
     -24     2     3     3     0     0  3.634455667E+01 -4.493069449E+01  6.844747237E+01  1.207044048E+02  8.089995520E+01  0.00000E+00  9.000E+00
      24     2     4     4     0     0  3.591317783E+01 -4.691191785E+00  1.270570618E+02  1.535728247E+02  7.829017766E+01  0.00000E+00  9.000E+00
     -11     1     6     6     0     0  2.780384923E+01  2.692849317E+01  2.417377615E+01  4.563517535E+01  0.000000000E+00  0.00000E+00  9.000E+00
      12     1     6     6     0     0  8.109328601E+00 -3.161968495E+01  1.028832856E+02  1.079376493E+02  1.348699152E-06  0.00000E+00  9.000E+00
      13     1     5     5     0     0 -9.526189207E+00 -1.054407481E+00  5.498761221E+01  5.581664225E+01  0.000000000E+00  0.00000E+00  9.000E+00
     -14     1     5     5     0     0  4.587074588E+01 -4.387628701E+01  1.345986016E+01  6.488776252E+01  2.112393993E-06  0.00000E+00  9.000E+00
       5     1     4     4   512     0 -2.387331349E+01 -1.860104571E+01  4.026409355E+01  5.059341586E+01  4.750000000E+00  0.00000E+00  9.000E+00
      -5     1     3     3     0   502 -4.001199869E+01  6.133956775E+01  5.586216668E+01  9.223148474E+01  4.750000000E+00  0.00000E+00  9.000E+00
      21     1     1     2   511   507 -8.271306829E+00  6.388226734E+00 -3.240968867E+00  1.094202160E+01  3.237360862E-07  0.00000E+00  9.000E+00
      21     1     4     4   507   512 -1.011154930E-01  4.951375026E-01  1.442464077E+00  1.528426676E+00  0.000000000E+00  0.00000E+00  9.000E+00
#rwgt            1          17   2.8336556577848970                1     7124439           0         110           0
<weights>
0.20481E+02
</weights>
</event>
<event>
     15  10001  1.35503E+01  6.40436E+00 -1.00000E+00  2.81464E-01
      21    -1     0     0   502   512  0.000000000E+00  0.000000000E+00  4.544465701E+02  4.544465701E+02  0.000000000E+00  0.00000E+00  9.000E+00
      21    -1     0     0   507   502  0.000000000E+00  0.000000000E+00 -1.347535584E+03  1.347535584E+03  0.000000000E+00  0.00000E+00  9.000E+00
      -6     2     1     2     0   501  3.323519214E+02  2.166710863E+02  2.981429941E+02  5.283073572E+02  1.811498260E+02  0.00000E+00  9.000E+00
       6     2     1     2   507     0 -3.360791200E+02 -2.114630341E+02 -1.099971276E+03  1.182189623E+03  1.731176114E+02  0.00000E+00  9.000E+00
     -24     2     3     3     0     0  1.354385322E+02  5.351838094E+01  5.677332799E+01  1.764943375E+02  8.197089296E+01  0.00000E+00  9.000E+00
      24     2     4     4     0     0 -3.483713512E+02 -2.020958073E+02 -1.018464249E+03  1.098156814E+03  8.045897824E+01  0.00000E+00  9.000E+00
     -11     1     6     6     0     0 -2.021097528E+02 -1.108934561E+02 -4.745193096E+02  5.275550075E+02  0.000000000E+00  0.00000E+00  9.000E+00
      12     1     6     6     0     0 -1.462615984E+02 -9.120235113E+01 -5.439449395E+02  5.706018062E+02  1.321449896E-05  0.00000E+00  9.000E+00
      13     1     5     5     0     0  4.327781994E-01  1.396544067E+01 -1.333329461E+01  1.931314514E+01  0.000000000E+00  0.00000E+00  9.000E+00
     -14     1     5     5     0     0  1.350057540E+02  3.955294027E+01  7.010662260E+01  1.571811924E+02  5.223489356E-06  0.00000E+00  9.000E+00
       5     1     4     4   514     0  1.386522827E+01 -1.067879883E+01 -7.656566415E+01  7.868382761E+01  4.750000000E+00  0.00000E+00  9.000E+00
      -5     1     3     3     0   511  1.818952684E+02  1.487118847E+02  2.186239522E+02  3.209674568E+02  4.750000000E+00  0.00000E+00  9.000E+00
      21     1     1     2   501   512  3.727198531E+00 -5.208052134E+00 -9.126073185E+01  9.148517362E+01  1.348699152E-06  0.00000E+00  9.000E+00
      21     1     3     3   511   501  1.501812083E+01  1.444082060E+01  2.274571391E+01  3.084556296E+01  4.768371582E-07  0.00000E+00  9.000E+00
      21     1     4     4   507   514 -1.572997093E+00  1.311571968E+00 -4.941362408E+00  5.348981523E+00  1.192092896E-07  0.00000E+00  9.000E+00
#rwgt            1          17   87.461736329732261                1     7134684           0       11110           0
<weights>
0.12856E+02
</weights>
</event>
<event>
     15  10001  1.35503E+01  1.89023E+01 -1.00000E+00  3.18353E-01
      21    -1     0     0   502   512  0.000000000E+00  0.000000000E+00  1.502490786E+02  1.502490786E+02  0.000000000E+00  0.00000E+00  9.000E+00
      21    -1     0     0   507   502  0.000000000E+00  0.000000000E+00 -2.801536038E+02  2.801536038E+02  0.000000000E+00  0.00000E+00  9.000E+00
      -6     2     1     2     0   501 -5.821283511E+01  2.903354202E+01  5.770801694E+00  1.857175441E+02  1.738563295E+02  0.00000E+00  9.000E+00
       6     2     1     2   507     0  4.145393685E+01 -2.029082357E+01 -1.018096231E+02  2.059013571E+02  1.729162314E+02  0.00000E+00  9.000E+00
     -24     2     3     3     0     0  7.891889890E-01  2.357350688E+01  6.029601737E+01  1.036248031E+02  8.090832503E+01  0.00000E+00  9.000E+00
      24     2     4     4     0     0 -9.316722988E+00 -3.108975910E+01 -1.194600916E+02  1.476149946E+02  8.041205580E+01  0.00000E+00  9.000E+00
     -11     1     6     6     0     0  2.345448347E+01  3.248087510E-01 -9.113819446E+01  9.410838849E+01  0.000000000E+00  0.00000E+00  9.000E+00
      12     1     6     6     0     0 -3.277120646E+01 -3.141456785E+01 -2.832189709E+01  5.350660614E+01  1.305872339E-06  0.00000E+00  9.000E+00
      13     1     5     5     0     0  5.307263042E+00  5.352706936E+01  4.191145499E+01  6.819005980E+01  0.000000000E+00  0.00000E+00  9.000E+00
     -14     1     5     5     0     0 -4.518074053E+00 -2.995356248E+01  1.838456238E+01  3.543474329E+01  1.168007728E-06  0.00000E+00  9.000E+00
       5     1     4     4   511     0  3.936629153E+00  3.033118593E+00  6.629512301E+00  9.550381712E+00  4.750000000E+00  0.00000E+00  9.000E+00
      -5     1     3     3     0   513 -5.963317052E+01  4.218737207E+00 -5.345876214E+01  8.033874855E+01  4.750000000E+00  0.00000E+00  9.000E+00
      21     1     4     4   507   511  4.683403069E+01  7.765816932E+00  1.102095615E+01  4.873598073E+01  1.567953400E-06  0.00000E+00  9.000E+00
      21     1     1     2   501   512  1.675889826E+01 -8.742718452E+00 -3.386570374E+01  3.878378123E+01  9.536743164E-07  0.00000E+00  9.000E+00
      21     1     3     3   513   501  6.311464210E-01  1.241297935E+00 -1.066453539E+00  1.753992451E+00  1.490116119E-08  0.00000E+00  9.000E+00
#rwgt            1          17   11.580208621077947                1     7143471           0      100111           0
<weights>
0.17759E+02
</weights>
</event>
<event>
     13  10001  1.35503E+01  3.42771E+01 -1.00000E+00  1.49125E-01
      21    -1     0     0   507   512  0.000000000E+00  0.000000000E+00  4.763275712E+02  4.763275712E+02  0.000000000E+00  0.00000E+00  9.000E+00
      21    -1     0     0   501   502  0.000000000E+00  0.000000000E+00 -1.292581051E+02  1.292581051E+02  0.000000000E+00  0.00000E+00  9.000E+00
      -6     2     1     2     0   502  4.093590599E+01  3.781523591E+01  1.968784192E+01  1.814827857E+02  1.715886066E+02  0.00000E+00  9.000E+00
       6     2     1     2   507     0 -6.835703176E+01 -1.724831752E+01  1.393091457E+02  2.329323556E+02  1.728590639E+02  0.00000E+00  9.000E+00
     -24     2     3     3     0     0  8.216613442E+01 -1.060952514E+01  1.847933736E+01  1.176947601E+02  8.152751061E+01  0.00000E+00  9.000E+00
      24     2     4     4     0     0 -6.219404697E+01 -2.987910707E+01  1.399108732E+01  1.067392596E+02  8.022878842E+01  0.00000E+00  9.000E+00
     -11     1     6     6     0     0 -5.542058189E+01  1.633684755E+01  1.610787222E+01  5.998163913E+01  0.000000000E+00  0.00000E+00  9.000E+00
      12     1     6     6     0     0 -6.773465080E+00 -4.621595463E+01 -2.116784902E+00  4.675762044E+01  6.789437383E-07  0.00000E+00  9.000E+00
      13     1     5     5     0     0  7.184086289E+01  1.771953087E+01 -1.183966625E+01  7.493509893E+01  0.000000000E+00  0.00000E+00  9.000E+00
     -14     1     5     5     0     0  1.032527153E+01 -2.832905602E+01  3.031900361E+01  4.275966121E+01  1.168007728E-06  0.00000E+00  9.000E+00
       5     1     4     4   507     0 -6.162984792E+00  1.263078955E+01  1.253180584E+02  1.261930961E+02  4.750000000E+00  0.00000E+00  9.000E+00
      -5     1     3     3     0   502 -4.123022843E+01  4.842476105E+01  1.208504555E+00  6.378802554E+01  4.750000000E+00  0.00000E+00  9.000E+00
      21     1     1     2   501   512  2.742112577E+01 -2.056691839E+01  1.880724785E+02  1.911705349E+02  0.000000000E+00  0.00000E+00  9.000E+00
#rwgt            2         113   9.2073595080761894                1     7162602           0           1           0
<weights>
0.13550E+02
</weights>
</event>
<event>
     15  10001  1.35503E+01  1.63284E+01 -1.00000E+00  4.18844E-01
      21    -1     0     0   502   513  0.000000000E+00  0.000000000E+00  7.627024995E+02  7.627024995E+02  0.000000000E+00  0.00000E+00  9.000E+00
      21    -1     0     0   507   502  0.000000000E+00  0.000000000E+00 -1.066283267E+02  1.066283267E+02  0.000000000E+00  0.00000E+00  9.000E+00
      -6     2     1     2     0   501 -5.678108830E+01  1.453887802E+01  4.973242626E+02  5.295944098E+02  1.723465863E+02  0.00000E+00  9.000E+00
       6     2     1     2   507     0  4.579875661E+01 -2.662212109E+01  5.095756229E-01  1.806558711E+02  1.727136957E+02  0.00000E+00  9.000E+00
     -24     2     3     3     0     0 -2.743782814E+01 -1.535639253E+01  4.698027860E+02  4.777878855E+02  8.110457816E+01  0.00000E+00  9.000E+00
      24     2     4     4     0     0  4.881355064E+01  3.555041614E+01 -1.246542761E+00  1.009752966E+02  8.091885964E+01  0.00000E+00  9.000E+00
     -11     1     6     6     0     0 -2.154253123E+01  1.421841700E+01  7.646418852E+00  2.692047093E+01  0.000000000E+00  0.00000E+00  9.000E+00
      12     1     6     6     0     0  7.035608186E+01  2.133199914E+01 -8.892961613E+00  7.405482570E+01  2.317693483E-06  0.00000E+00  9.000E+00
      13     1     5     5     0     0 -4.428059130E+01  1.919395797E+01  2.420568759E+02  2.468212105E+02  0.000000000E+00  0.00000E+00  9.000E+00
     -14     1     5     5     0     0  1.684276316E+01 -3.455035050E+01  2.277459101E+02  2.309666750E+02  3.814697266E-06  0.00000E+00  9.000E+00
       5     1     4     4   511     0  1.323907792E+01 -2.712140735E+01 -1.884375331E+01  3.589559109E+01  4.750000000E+00  0.00000E+00  9.000E+00
      -5     1     3     3     0   512 -2.922055487E+01  3.081202950E+01  2.597587365E+01  5.000530473E+01  4.750000000E+00  0.00000E+00  9.000E+00
      21     1     4     4   507   511 -1.625387194E+01 -3.505112988E+01  2.059987170E+01  4.378498341E+01  9.830249847E-07  0.00000E+00  9.000E+00
      21     1     1     2   501   513  1.098233169E+01  1.208324306E+01  1.582403346E+02  1.590805453E+02  1.907348633E-06  0.00000E+00  9.000E+00
      21     1     3     3   512   501 -1.227052908E-01 -9.167589450E-01  1.545602921E+00  1.801219571E+00  2.107342426E-08  0.00000E+00  9.000E+00
#rwgt            1          17   25.328735048381578                1     7164721           0      100111           0
<weights>
0.26631E+02
</weights>
</event>
<event>
     15  10001  1.35503E+01  7.04436E+01 -1.00000E+00  2.78298E-01
      21    -1     0     0   507   501  0.000000000E+00  0.000000000E+00  6.848594888E+01  6.848594888E+01  0.000000000E+00  0.00000E+00  9.000E+00
      21    -1     0     0   501   512  0.000000000E+00  0.000000000E+00 -1.153173695E+03  1.153173695E+03  0.000000000E+00  0.00000E+00  9.000E+00
      -6     2     1     2     0   502 -1.036240176E+02  4.406050613E+01 -8.117978247E+02  8.381749179E+02  1.756195312E+02  0.00000E+00  9.000E+00
       6     2     1     2   507     0  7.513724839E+01  2.036619360E+01 -1.526525547E+02  2.441315056E+02  1.738878996E+02  0.00000E+00  9.000E+00
     -24     2     3     3     0     0 -4.205987685E+00  6.239324500E+01 -3.504698666E+02  3.654978846E+02  8.275849735E+01  0.00000E+00  9.000E+00
      24     2     4     4     0     0  2.634136080E+01  6.941483418E+01 -1.073211194E+02  1.610066739E+02  9.430291542E+01  0.00000E+00  9.000E+00
     -11     1     6     6     0     0  7.194636152E+00  4.959078075E+01 -1.204655107E+02  1.304720184E+02  0.000000000E+00  0.00000E+00  9.000E+00
      12     1     6     6     0     0  1.914672465E+01  1.982405342E+01  1.314439128E+01  3.053465541E+01  1.143415337E-06  0.00000E+00  9.000E+00
      13     1     5     5     0     0 -2.867803345E+01  2.958442590E+01 -2.872159063E+02  2.901562418E+02  0.000000000E+00  0.00000E+00  9.000E+00
     -14     1     5     5     0     0  2.447204577E+01  3.280881910E+01 -6.325396031E+01  7.534164273E+01  1.907348633E-06  0.00000E+00  9.000E+00
       5     1     4     4   513     0  4.782214015E+01 -4.836194788E+01 -4.543112442E+01  8.192914413E+01  4.750000000E+00  0.00000E+00  9.000E+00
      -5     1     3     3     0   511 -9.945134482E+01 -1.844617698E+01 -4.460720922E+02  4.574207094E+02  4.750000000E+00  0.00000E+00  9.000E+00
      21     1     1     2   502   512  2.848676917E+01 -6.442669973E+01 -1.202373666E+02  1.393532202E+02  2.336015456E-06  0.00000E+00  9.000E+00
      21     1     3     3   511   502  3.331495357E-02  1.134381110E-01 -1.525586588E+01  1.525632399E+01  0.000000000E+00  0.00000E+00  9.000E+00
      21     1     4     4   507   513  9.737474344E-01 -6.866926913E-01  9.968914627E-02  1.195687603E+00  2.765886934E-08  0.00000E+00  9.000E+00
#rwgt            1          17   158.89138142918537                1     7175913           0       11110           0
<weights>
0.16223E+02
</weights>
</event>
<event>
     15  10001 -1.35503E+01  3.91827E+01 -1.00000E+00  2.56175E-01
      21    -1     0     0   507   511  0.000000000E+00  0.000000000E+00  4.443737922E+02  4.443737922E+02  0.000000000E+00  0.00000E+00  9.000E+00
      21    -1     0     0   501   502  0.000000000E+00  0.000000000E+00 -1.871611888E+02  1.871611888E+02  0.000000000E+00  0.00000E+00  9.000E+00
      -6     2     1     2     0   502  9.541671634E+00  6.305500203E+01 -9.550349137E+01  2.066464609E+02  1.717989120E+02  0.00000E+00  9.000E+00
       6     2     1     2   507     0 -4.395058427E+01 -4.431166780E+01  2.209890397E+02  2.874574359E+02  1.729174486E+02  0.00000E+00  9.000E+00
     -24     2     3     3     0     0  2.437830055E+01  1.051817482E+02 -6.827913488E+01  1.514074362E+02  8.126911954E+01  0.00000E+00  9.000E+00
      24     2     4     4     0     0 -8.264965006E+01  1.707878805E+00  1.827603401E+02  2.156743646E+02  7.924776437E+01  0.00000E+00  9.000E+00
     -11     1     6     6     0     0 -9.223781500E+01 -1.608832745E+01  1.406695752E+02  1.689809995E+02  0.000000000E+00  0.00000E+00  9.000E+00
      12     1     6     6     0     0  9.588164938E+00  1.779620626E+01  4.209076483E+01  4.669336514E+01  6.743495762E-07  0.00000E+00  9.000E+00
      13     1     5     5     0     0  9.420215958E-01  7.880183932E+01 -8.183020217E+01  1.136080951E+02  0.000000000E+00  0.00000E+00  9.000E+00
     -14     1     5     5     0     0  2.343627896E+01  2.637990889E+01  1.355106730E+01  3.779934112E+01  1.430511475E-06  0.00000E+00  9.000E+00
       5     1     4     4   514     0  3.315292349E+01 -4.253256322E+01  3.300021868E+01  6.340120033E+01  4.750000000E+00  0.00000E+00  9.000E+00
      -5     1     3     3     0   512 -1.393329373E+01 -4.191216429E+01 -2.134039749E+01  4.928226105E+01  4.750000000E+00  0.00000E+00  9.000E+00
      21     1     1     2   501   511  3.440891264E+01 -1.874333422E+01  1.317270551E+02  1.374310842E+02  0.000000000E+00  0.00000E+00  9.000E+00
      21     1     3     3   512   502 -9.033351888E-01 -2.145819017E-01 -5.883959003E+00  5.956763669E+00  1.685873940E-07  0.00000E+00  9.000E+00
      21     1     4     4   507   514  5.546142294E+00 -3.486983389E+00  5.228480986E+00  8.381870968E+00  1.788139343E-07  0.00000E+00  9.000E+00
#rwgt            1          17  -8.1487557607975436                1     7185117           0       11110           0
<weights>
-.13400E+02
</weights>
</event>
<event>
     15  10001 -1.35503E+01  1.50013E+01 -1.00000E+00  1.49512E-01
      21    -1     0     0   507   513  0.000000000E+00  0.000000000E+00  1.650296161E+02  1.650296161E+02  0.000000000E+00  0.00000E+00  9.000E+00
      21    -1     0     0   501   502  0.000000000E+00  0.000000000E+00 -6.445572606E+02  6.445572606E+02  0.000000000E+00  0.00000E+00  9.000E+00
      -6     2     1     2     0   502 -8.920044141E+01  1.138274629E+02 -4.470194158E+02  4.999935256E+02  1.710372984E+02  0.00000E+00  9.000E+00
       6     2     1     2   507     0  8.876860378E+01 -1.288225888E+02 -9.090928493E+01  2.492963890E+02  1.714907201E+02  0.00000E+00  9.000E+00
     -24     2     3     3     0     0 -7.521183033E+01  1.294301197E+02 -4.352773876E+02  4.668872544E+02  7.815579852E+01  0.00000E+00  9.000E+00
      24     2     4     4     0     0  3.832446215E+01 -2.856523259E+01 -9.914607716E+01  1.349821978E+02  7.813777694E+01  0.00000E+00  9.000E+00
     -11     1     6     6     0     0  2.296209264E+01  1.235276069E+01  5.997498419E-01  2.608079935E+01  0.000000000E+00  0.00000E+00  9.000E+00
      12     1     6     6     0     0  1.536236951E+01 -4.091799329E+01 -9.974582700E+01  1.089013984E+02  0.000000000E+00  0.00000E+00  9.000E+00
      13     1     5     5     0     0  1.326507388E+01  2.010214864E+00 -4.327510177E+01  4.530714714E+01  0.000000000E+00  0.00000E+00  9.000E+00
     -14     1     5     5     0     0 -8.847690421E+01  1.274199049E+02 -3.920022858E+02  4.215801073E+02  9.344061824E-06  0.00000E+00  9.000E+00
       5     1     4     4   512     0  6.638692231E+00 -2.189664490E+01 -4.005725196E+00  2.370956826E+01  4.750000000E+00  0.00000E+00  9.000E+00
      -5     1     3     3     0   511 -7.740529227E+00  3.774505767E+00 -4.965369888E-01  9.847422784E+00  4.750000000E+00  0.00000E+00  9.000E+00
      21     1     4     4   507   512  4.380544940E+01 -7.836071127E+01  1.224251742E+01  9.060462296E+01  3.631483605E-06  0.00000E+00  9.000E+00
      21     1     3     3   511   502 -6.248081850E+00 -1.937716258E+01 -1.124549123E+01  2.325884841E+01  1.739802303E-06  0.00000E+00  9.000E+00
      21     1     1     2   501   513  4.318376260E-01  1.499512586E+01  5.840105622E+01  6.029696220E+01  0.000000000E+00  0.00000E+00  9.000E+00
#rwgt            1          17  -14.186544840883705                1     7191880           0      101101           0
<weights>
-.13182E+02
</weights>
</event>
<event>
     14  10001  1.35503E+01  3.56864E+01 -1.00000E+00  7.52422E-01
      21    -1     0     0   511   501  0.000000000E+00  0.000000000E+00  2.549977307E+02  2.549977307E+02  0.000000000E+00  0.00000E+00  9.000E+00
      21    -1     0     0   507   502  0.000000000E+00  0.000000000E+00 -2.836830618E+02  2.836830618E+02  0.000000000E+00  0.00000E+00  9.000E+00
      -6     2     1     2     0   501  4.029237965E+01 -1.342861150E+02  3.571628163E+01  2.253987989E+02  1.728372912E+02  0.00000E+00  9.000E+00
       6     2     1     2   507     0 -1.759721861E+01  1.618260931E+02 -1.047895615E+02  2.593866587E+02  1.726361492E+02  0.00000E+00  9.000E+00
     -24     2     3     3     0     0  1.390583824E+01 -1.376319114E+02 -2.200701779E+01  1.616650895E+02  8.071788491E+01  0.00000E+00  9.000E+00
      24     2     4     4     0     0 -7.449479878E+01  7.902291847E+01 -4.801832826E+01  1.438062645E+02  8.111957322E+01  0.00000E+00  9.000E+00
     -11     1     6     6     0     0 -5.378071062E+01  7.567492047E+01 -1.585456074E+00  9.285242104E+01  0.000000000E+00  0.00000E+00  9.000E+00
      12     1     6     6     0     0 -2.071408816E+01  3.347997994E+00 -4.643287218E+01  5.095384341E+01  6.743495762E-07  0.00000E+00  9.000E+00
      13     1     5     5     0     0 -3.158836326E+01 -8.328891161E+01 -8.141194085E+00  8.944912818E+01  0.000000000E+00  0.00000E+00  9.000E+00
     -14     1     5     5     0     0  4.549420150E+01 -5.434299979E+01 -1.386582370E+01  7.221596128E+01  2.198110689E-06  0.00000E+00  9.000E+00
       5     1     4     4   512     0  4.330017229E+01  6.071645617E+01 -4.299483076E+01  8.621201159E+01  4.750000000E+00  0.00000E+00  9.000E+00
      -5     1     3     3     0   501  2.638654141E+01  3.345796368E+00  5.772329942E+01  6.373370942E+01  4.750000000E+00  0.00000E+00  9.000E+00
      21     1     1     2   511   502 -2.269516104E+01 -2.753997810E+01  4.038794875E+01  5.389533498E+01  1.261592536E-06  0.00000E+00  9.000E+00
      21     1     4     4   507   512  1.359740788E+01  2.208671849E+01 -1.377640246E+01  2.936838265E+01  1.685873940E-07  0.00000E+00  9.000E+00
#rwgt            1          17   86.532483628658312                1     7193932           0         110           0
<weights>
0.13153E+02
</weights>
</event>
<event>
     15  10001  1.35503E+01  4.25262E+01 -1.00000E+00  6.79951E-01
      21    -1     0     0   512   501  0.000000000E+00  0.000000000E+00  5.396720312E+02  5.396720312E+02  0.000000000E+00  0.00000E+00  9.000E+00
      21    -1     0     0   507   502  0.000000000E+00  0.000000000E+00 -1.398202068E+02  1.398202068E+02  0.000000000E+00  0.00000E+00  9.000E+00
      -6     2     1     2     0   501 -1.444981966E+01  9.267254879E+01  1.642253794E+02  2.555918073E+02  1.719307946E+02  0.00000E+00  9.000E+00
       6     2     1     2   507     0  5.440405320E+01 -7.810773895E+01  1.635427320E+01  2.005425122E+02  1.757532846E+02  0.00000E+00  9.000E+00
     -24     2     3     3     0     0 -5.997508903E+01  4.697070215E+01  1.524300077E+02  1.896704091E+02  8.328684584E+01  0.00000E+00  9.000E+00
      24     2     4     4     0     0  2.837975947E+01 -2.783924301E+01 -4.439826872E+01  1.114983160E+02  9.423499356E+01  0.00000E+00  9.000E+00
     -11     1     6     6     0     0  2.473940707E+01 -6.227826180E+01 -3.506475434E+01  7.563172054E+01  0.000000000E+00  0.00000E+00  9.000E+00
      12     1     6     6     0     0  3.640352398E+00  3.443901879E+01 -9.333514372E+00  3.586659548E+01  7.539457465E-07  0.00000E+00  9.000E+00
      13     1     5     5     0     0  2.122478525E+01  9.291117294E+00  2.708839355E+01  3.564544059E+01  0.000000000E+00  0.00000E+00  9.000E+00
     -14     1     5     5     0     0 -8.119987428E+01  3.767958486E+01  1.253416141E+02  1.540249685E+02  2.697398305E-06  0.00000E+00  9.000E+00
       5     1     4     4   511     0  2.482790762E+01 -5.315195786E+01  6.217416823E+01  8.561393179E+01  4.750000000E+00  0.00000E+00  9.000E+00
      -5     1     3     3     0   514  4.354041023E+01  4.487772961E+01  1.141174755E+01  6.373828065E+01  4.750000000E+00  0.00000E+00  9.000E+00
      21     1     1     2   512   502 -3.995423354E+01 -1.456480984E+01  2.192721717E+02  2.233579185E+02  2.697398305E-06  0.00000E+00  9.000E+00
      21     1     4     4   507   511  1.196386107E+00  2.883461913E+00 -1.421626314E+00  3.430264377E+00  1.154238983E-07  0.00000E+00  9.000E+00
      21     1     3     3   514   501  1.984859139E+00  8.241170305E-01  3.836241699E-01  2.183117538E+00  6.430848130E-08  0.00000E+00  9.000E+00
#rwgt            1          17   69.908887485986099                1     7209369           0       11011           0
<weights>
0.15258E+02
</weights>
</event>
<event>
     15  10001  1.35503E+01  2.12907E+01 -1.00000E+00  4.93863E-01
      21    -1     0     0   502   512  0.000000000E+00  0.000000000E+00  1.509155357E+02  1.509155357E+02  0.000000000E+00  0.00000E+00  9.000E+00
      21    -1     0     0   507   502  0.000000000E+00  0.000000000E+00 -4.555143822E+02  4.555143822E+02  0.000000000E+00  0.00000E+00  9.000E+00
      -6     2     1     2     0   501  4.959776001E+01  1.509187982E+01  5.147425556E+01  1.903965487E+02  1.758224790E+02  0.00000E+00  9.000E+00
       6     2     1     2   507     0 -7.031554514E+01 -1.999784387E+01 -3.425712597E+02  3.908223627E+02  1.733287673E+02  0.00000E+00  9.000E+00
     -24     2     3     3     0     0 -7.008613229E+00  6.335957038E+01  5.521250058E+01  1.154020295E+02  7.877596320E+01  0.00000E+00  9.000E+00
      24     2     4     4     0     0 -6.896371707E+01 -7.675942757E+00 -1.167518878E+02  1.583514274E+02  8.142024873E+01  0.00000E+00  9.000E+00
     -11     1     6     6     0     0 -4.618765806E+01  1.391928314E+01 -1.300630196E+01  4.996208653E+01  0.000000000E+00  0.00000E+00  9.000E+00
      12     1     6     6     0     0 -2.277605901E+01 -2.159522589E+01 -1.037455858E+02  1.083893409E+02  1.907348633E-06  0.00000E+00  9.000E+00
      13     1     5     5     0     0  5.373817623E+00  3.966267365E+01  7.302521917E+01  8.327477548E+01  0.000000000E+00  0.00000E+00  9.000E+00
     -14     1     5     5     0     0 -1.238243085E+01  2.369689673E+01 -1.781271859E+01  3.212725404E+01  5.840038640E-07  0.00000E+00  9.000E+00
       5     1     4     4   511     0 -1.601729068E+01 -1.920425122E+01 -2.024008842E+02  2.039951894E+02  4.750000000E+00  0.00000E+00  9.000E+00
      -5     1     3     3     0   513  5.481525140E+01 -4.663142055E+01 -4.930091431E+00  7.229155877E+01  4.750000000E+00  0.00000E+00  9.000E+00
      21     1     4     4   507   511  1.466546260E+01  6.882350107E+00 -2.341848768E+01  2.847574585E+01  5.840038640E-07  0.00000E+00  9.000E+00
      21     1     1     2   501   512  2.071778513E+01  4.905964054E+00 -1.350184239E+01  2.521100656E+01  4.768371582E-07  0.00000E+00  9.000E+00
      21     1     3     3   513   501  1.791121844E+00 -1.636270011E+00  1.191846417E+00  2.702960394E+00  3.332000937E-08  0.00000E+00  9.000E+00
#rwgt            1          17   37.574970327789629                1     7215938           0      100111           0
<weights>
0.13087E+02
</weights>
</event>
<event>
     13  10001  1.35503E+01  3.28090E+00 -1.00000E+00  2.85551E-01
      21    -1     0     0   502   501  0.000000000E+00  0.000000000E+00  3.899330132E+01  3.899330132E+01  0.000000000E+00  0.00000E+00  9.000E+00
      21    -1     0     0   507   512  0.000000000E+00  0.000000000E+00 -1.528656681E+03  1.528656681E+03  0.000000000E+00  0.00000E+00  9.000E+00
      -6     2     1     2     0   501 -4.611404487E+01 -1.357407859E+01 -2.146161869E+02  2.795017405E+02  1.724829109E+02  0.00000E+00  9.000E+00
       6     2     1     2   507     0  4.697644985E+01  1.040855425E+01 -1.261766035E+03  1.274467838E+03  1.729150629E+02  0.00000E+00  9.000E+00
     -24     2     3     3     0     0 -3.791510949E+01 -5.009752419E+01 -5.872965492E+01  1.191135927E+02  8.241091032E+01  0.00000E+00  9.000E+00
      24     2     4     4     0     0  4.126134349E+01  2.074685701E+01 -3.374286832E+02  3.500428033E+02  8.086357246E+01  0.00000E+00  9.000E+00
     -11     1     6     6     0     0  4.003295872E+01  3.262390858E+01 -3.334969449E+02  3.374717314E+02  0.000000000E+00  0.00000E+00  9.000E+00
      12     1     6     6     0     0  1.228384768E+00 -1.187705157E+01 -3.931738246E+00  1.257107190E+01  4.539354507E-07  0.00000E+00  9.000E+00
      13     1     5     5     0     0 -8.107400104E+00  3.048009406E+00  1.868487580E+01  2.059477801E+01  0.000000000E+00  0.00000E+00  9.000E+00
     -14     1     5     5     0     0 -2.980770939E+01 -5.314553360E+01 -7.741453072E+01  9.851881468E+01  3.162979880E-06  0.00000E+00  9.000E+00
       5     1     4     4   507     0  5.715106353E+00 -1.033830275E+01 -9.243373515E+02  9.244250347E+02  4.750000000E+00  0.00000E+00  9.000E+00
      -5     1     3     3     0   501 -8.198935378E+00  3.652344561E+01 -1.558865320E+02  1.603881478E+02  4.750000000E+00  0.00000E+00  9.000E+00
      21     1     1     2   502   512 -8.624049767E-01  3.165524332E+00 -1.328115780E+01  1.368040347E+01  1.685873940E-07  0.00000E+00  9.000E+00
#rwgt            2         113   456.06282670538070                1     7221359           0           1           0
<weights>
0.13550E+02
</weights>
</event>
<event>
     15  10001 -1.35503E+01  2.34811E+01 -1.00000E+00  3.76417E-01
      21    -1     0     0   511   501  0.000000000E+00  0.000000000E+00  1.750055680E+02  1.750055680E+02  0.000000000E+00  0.00000E+00  9.000E+00
      21    -1     0     0   507   502  0.000000000E+00  0.000000000E+00 -4.948459845E+02  4.948459845E+02  0.000000000E+00  0.00000E+00  9.000E+00
      -6     2     1     2     0   501 -2.247441724E+01  1.694145633E+02  6.125821821E+00  2.409685369E+02  1.697701869E+02  0.00000E+00  9.000E+00
       6     2     1     2   507     0  2.425890276E+01 -1.928277555E+02 -3.026374760E+02  3.957832707E+02  1.651784426E+02  0.00000E+00  9.000E+00
     -24     2     3     3     0     0 -4.137679139E+01  7.305553584E+01 -5.270071397E+01  1.261170242E+02  7.796786755E+01  0.00000E+00  9.000E+00
      24     2     4     4     0     0  2.818978407E+01 -1.927159330E+02 -3.151866925E+02  3.791370610E+02  8.042490367E+01  0.00000E+00  9.000E+00
     -11     1     6     6     0     0  4.683018098E+01 -9.988800955E+01 -2.127084810E+02  2.396154798E+02  0.000000000E+00  0.00000E+00  9.000E+00
      12     1     6     6     0     0 -1.864039691E+01 -9.282792346E+01 -1.024782116E+02  1.395215812E+02  2.697398305E-06  0.00000E+00  9.000E+00
      13     1     5     5     0     0 -3.353257391E+01 -6.692819220E+00 -1.198754571E+01  3.623435655E+01  0.000000000E+00  0.00000E+00  9.000E+00
     -14     1     5     5     0     0 -7.844217474E+00  7.974835506E+01 -4.071316826E+01  8.988266770E+01  0.000000000E+00  0.00000E+00  9.000E+00
       5     1     4     4   512     0 -3.883437207E+00 -4.074916077E-01  1.393346578E+01  1.522994099E+01  4.750000000E+00  0.00000E+00  9.000E+00
      -5     1     3     3     0   513  1.733835014E+01  8.997157008E+01  5.704641147E+01  1.080386846E+02  4.750000000E+00  0.00000E+00  9.000E+00
      21     1     1     2   511   502 -1.784485528E+00  2.341319214E+01 -2.332876243E+01  3.309974488E+01  7.539457465E-07  0.00000E+00  9.000E+00
      21     1     3     3   513   501  1.564024012E+00  6.387457390E+00  1.780124317E+00  6.812828018E+00  1.192092896E-07  0.00000E+00  9.000E+00
      21     1     4     4   507   512 -4.744409641E-02  2.956691617E-01 -1.384249238E+00  1.416268742E+00  0.000000000E+00  0.00000E+00  9.000E+00
#rwgt            1          17  -174.70919679527256                1     7221894           0       11110           0
<weights>
-.13684E+02
</weights>
</event>
<event>
     15  10001  1.35503E+01  3.56396E+01 -1.00000E+00  5.66316E-01
      21    -1     0     0   507   501  0.000000000E+00  0.000000000E+00  7.390764482E+02  7.390764482E+02  0.000000000E+00  0.00000E+00  9.000E+00
      21    -1     0     0   512   502  0.000000000E+00  0.000000000E+00 -3.066505615E+02  3.066505615E+02  0.000000000E+00  0.00000E+00  9.000E+00
      -6     2     1     2     0   502 -1.624947412E+02  1.902733906E+02 -1.609827039E+02  3.435166195E+02  1.716966304E+02  0.00000E+00  9.000E+00
       6     2     1     2   507     0  1.275835511E+02 -1.974420385E+02  3.485057392E+02  4.547278911E+02  1.733790172E+02  0.00000E+00  9.000E+00
     -24     2     3     3     0     0 -1.587103504E+02  2.090713009E+02 -1.270345158E+02  3.026036606E+02  8.081721955E+01  0.00000E+00  9.000E+00
      24     2     4     4     0     0  1.473756552E+02 -1.134825784E+02  2.334682662E+02  3.093400530E+02  8.115391363E+01  0.00000E+00  9.000E+00
     -11     1     6     6     0     0  1.293654633E+02 -9.826680318E+01  1.449002378E+02  2.176875436E+02  0.000000000E+00  0.00000E+00  9.000E+00
      12     1     6     6     0     0  1.801019191E+01 -1.521577523E+01  8.856802842E+01  9.165250944E+01  9.536743164E-07  0.00000E+00  9.000E+00
      13     1     5     5     0     0 -5.514336576E+01  1.388054198E+02 -6.436774381E+01  1.626374551E+02  0.000000000E+00  0.00000E+00  9.000E+00
     -14     1     5     5     0     0 -1.035669847E+02  7.026588113E+01 -6.266677202E+01  1.399662055E+02  2.780414531E-06  0.00000E+00  9.000E+00
       5     1     4     4   511     0 -2.182629510E+01 -8.351420847E+01  1.097777663E+02  1.397309223E+02  4.750000000E+00  0.00000E+00  9.000E+00
      -5     1     3     3     0   513 -2.282872410E+00 -1.989653362E+01 -3.281072207E+01  3.873228033E+01  4.750000000E+00  0.00000E+00  9.000E+00
      21     1     1     2   512   501  3.491119008E+01  7.168647893E+00  2.449028515E+02  2.474824991E+02  5.394796609E-06  0.00000E+00  9.000E+00
      21     1     4     4   507   511  2.034191019E+00 -4.452515895E-01  5.259706643E+00  5.656915772E+00  8.429369702E-08  0.00000E+00  9.000E+00
      21     1     3     3   513   502 -1.501518360E+00  1.098623277E+00 -1.137465980E+00  2.180678643E+00  4.214684851E-08  0.00000E+00  9.000E+00
#rwgt            1          17   7.4574034888067899                1     7231915           0       11011           0
<weights>
0.62023E+01
</weights>
</event>
<event>
     15  10001  1.35503E+01  3.72480E+00 -1.00000E+00  4.10301E-01
      21    -1     0     0   511   501  0.000000000E+00  0.000000000E+00  3.039941090E+02  3.039941090E+02  0.000000000E+00  0.00000E+00  9.000E+00
      21    -1     0     0   501   502  0.000000000E+00  0.000000000E+00 -2.026276322E+02  2.026276322E+02  0.000000000E+00  0.00000E+00  9.000E+00
      -6     2     1     2     0   502 -2.347804361E+01 -1.654397135E+02  7.456053750E+01  2.513212787E+02  1.722834700E+02  0.00000E+00  9.000E+00
       6     2     1     2   507     0  2.455301752E+01  1.618733991E+02  3.923113496E+01  2.423289686E+02  1.742940018E+02  0.00000E+00  9.000E+00
     -24     2     3     3     0     0 -6.673097955E+01 -1.173942743E+02  3.404205468E+00  1.550103004E+02  7.604055061E+01  0.00000E+00  9.000E+00
      24     2     4     4     0     0 -3.019724583E+00  2.577922490E+01 -2.713695488E+01  8.826688522E+01  7.988079578E+01  0.00000E+00  9.000E+00
     -11     1     6     6     0     0  2.905762747E+01  2.090159313E+01  1.170201052E+01  3.765845668E+01  0.000000000E+00  0.00000E+00  9.000E+00
      12     1     6     6     0     0 -3.207735205E+01  4.877631769E+00 -3.883896539E+01  5.060842854E+01  1.261592536E-06  0.00000E+00  9.000E+00
      13     1     5     5     0     0 -3.091672068E+01 -3.682792074E+01 -3.435546146E+01  5.909684505E+01  0.000000000E+00  0.00000E+00  9.000E+00
     -14     1     5     5     0     0 -3.581425887E+01 -8.056635359E+01  3.775966692E+01  9.591345534E+01  4.768371582E-07  0.00000E+00  9.000E+00
       5     1     4     4   512     0  2.375420599E+01  1.241689839E+02  6.013872658E+01  1.400765069E+02  4.750000000E+00  0.00000E+00  9.000E+00
      -5     1     3     3     0   514  3.423234903E+01 -3.777130058E+01  5.743838553E+01  7.694319658E+01  4.750000000E+00  0.00000E+00  9.000E+00
      21     1     1     2   511   507 -1.074973911E+00  3.566314375E+00 -1.242519570E+01  1.297149395E+01  1.685873940E-07  0.00000E+00  9.000E+00
      21     1     4     4   507   512  3.818536107E+00  1.192519033E+01  6.229363255E+00  1.398557646E+01  8.429369702E-08  0.00000E+00  9.000E+00
      21     1     3     3   514   502  9.020586910E+00 -1.027413857E+01  1.371794651E+01  1.936778170E+01  0.000000000E+00  0.00000E+00  9.000E+00
#rwgt            1          17   11.192470310348318                1     7239869           0       11011           0
<weights>
0.14947E+02
</weights>
</event>
<event>
     15  10001  1.35503E+01  2.98884E+01 -1.00000E+00  3.62628E-01
      21    -1     0     0   512   501  0.000000000E+00  0.000000000E+00  2.447316590E+02  2.447316590E+02  0.000000000E+00  0.00000E+00  9.000E+00
      21    -1     0     0   507   502  0.000000000E+00  0.000000000E+00 -8.196676645E+02  8.196676645E+02  0.000000000E+00  0.00000E+00  9.000E+00
      -6     2     1     2     0   501 -7.454113183E+01  1.428971910E+02 -8.443334593E+01  2.498331466E+02  1.712063775E+02  0.00000E+00  9.000E+00
       6     2     1     2   507     0  4.957885486E+01 -1.593349450E+02 -6.276817741E+02  6.741687963E+02  1.807580395E+02  0.00000E+00  9.000E+00
     -24     2     3     3     0     0  2.495730112E+01  7.659829063E+01 -5.440288897E+01  1.262291500E+02  8.052303376E+01  0.00000E+00  9.000E+00
      24     2     4     4     0     0  3.703832915E+01 -1.451671585E+01 -3.446665076E+02  3.558875827E+02  7.923633767E+01  0.00000E+00  9.000E+00
     -11     1     6     6     0     0 -9.603385939E+00 -8.218788167E+00 -6.045580134E+00  1.401151454E+01  0.000000000E+00  0.00000E+00  9.000E+00
      12     1     6     6     0     0  4.664171509E+01 -6.297927680E+00 -3.386209274E+02  3.418760682E+02  6.607249480E-06  0.00000E+00  9.000E+00
      13     1     5     5     0     0  2.577342326E+00  3.613379960E+01  1.789792288E+01  4.040581406E+01  0.000000000E+00  0.00000E+00  9.000E+00
     -14     1     5     5     0     0  2.237995879E+01  4.046449103E+01 -7.230081185E+01  8.582333589E+01  9.536743164E-07  0.00000E+00  9.000E+00
       5     1     4     4   513     0  1.288077741E+01 -1.374240155E+02 -2.656963371E+02  2.994467908E+02  4.750000000E+00  0.00000E+00  9.000E+00
      -5     1     3     3     0   511 -9.388512246E+01  6.386995046E+01 -2.975896210E+01  1.174816799E+02  4.750000000E+00  0.00000E+00  9.000E+00
      21     1     1     2   512   502  2.496227697E+01  1.643775399E+01  1.371791145E+02  1.403973806E+02  0.000000000E+00  0.00000E+00  9.000E+00
      21     1     3     3   511   501 -5.613310484E+00  2.428949957E+00 -2.714948604E-01  6.122316713E+00  9.439035847E-08  0.00000E+00  9.000E+00
      21     1     4     4   507   513 -3.402517048E-01 -7.394213707E+00 -1.731892940E+01  1.883442282E+01  2.384185791E-07  0.00000E+00  9.000E+00
#rwgt            1          17   19.231209940974594                1     7250294           0       11110           0
<weights>
0.16609E+02
</weights>
</event>
<event>
     14  10001  1.35503E+01  3.69420E+01 -1.00000E+00  7.51471E-01
      21    -1     0     0   502   501  0.000000000E+00  0.000000000E+00  1.554723034E+03  1.554723034E+03  0.000000000E+00  0.00000E+00  9.000E+00
      21    -1     0     0   507   511  0.000000000E+00  0.000000000E+00 -1.829591928E+02  1.829591928E+02  0.000000000E+00  0.00000E+00  9.000E+00
      -6     2     1     2     0   501  5.559516540E+01 -2.937730561E+01  2.278779107E+02  2.915821831E+02  1.706985026E+02  0.00000E+00  9.000E+00
       6     2     1     2   507     0 -2.746724749E+01  5.332580988E+01 -9.296866150E+01  2.086938888E+02  1.769516191E+02  0.00000E+00  9.000E+00
     -24     2     3     3     0     0  2.585235862E+01 -7.219614728E+01  8.367899630E+01  1.381743046E+02  7.879933946E+01  0.00000E+00  9.000E+00
      24     2     4     4     0     0 -6.567316953E+00  8.740761877E+01 -1.322208381E+01  1.177794903E+02  7.754974764E+01  0.00000E+00  9.000E+00
     -11     1     6     6     0     0 -3.466139707E+00  7.518588776E+01 -4.212050166E+01  8.625003480E+01  0.000000000E+00  0.00000E+00  9.000E+00
      12     1     6     6     0     0 -3.101177246E+00  1.222173102E+01  2.889841785E+01  3.152945549E+01  1.066240300E-06  0.00000E+00  9.000E+00
      13     1     5     5     0     0  2.792383593E+01 -1.456683722E+01  7.303125731E+01  7.953299883E+01  0.000000000E+00  0.00000E+00  9.000E+00
     -14     1     5     5     0     0 -2.071477306E+00 -5.762931005E+01  1.064773900E+01  5.864130576E+01  1.668930054E-06  0.00000E+00  9.000E+00
       5     1     4     4   512     0 -1.930167116E+01 -3.566380610E+01 -7.809562834E+01  8.812463470E+01  4.750000000E+00  0.00000E+00  9.000E+00
      -5     1     3     3     0   501  2.974280678E+01  4.281884167E+01  1.441989144E+02  1.534078785E+02  4.750000000E+00  0.00000E+00  9.000E+00
      21     1     1     2   502   511 -2.812791792E+01 -2.394850427E+01  1.236854592E+03  1.237406155E+03  0.000000000E+00  0.00000E+00  9.000E+00
      21     1     4     4   507   512 -1.598259370E+00  1.581997204E+00 -1.650949358E+00  2.789763780E+00  9.185692672E-08  0.00000E+00  9.000E+00
#rwgt            1          17   26.552892144116473                1     7260077           0         110           0
<weights>
0.12369E+02
</weights>
</event>
<event>
     13  10001  1.35503E+01  4.05773E+02 -1.00000E+00  1.01499E-01
      21    -1     0     0   507   501  0.000000000E+00  0.000000000E+00  9.032064473E+02  9.032064473E+02  0.000000000E+00  0.00000E+00  9.000E+00
      -4    -1     0     0     0   502  0.000000000E+00  0.000000000E+00 -9.928305592E+02  9.928305592E+02  0.000000000E+00  0.00000E+00  9.000E+00
      -6     2     1     2     0   502 -6.050991476E+02 -3.308995755E+02  3.483003626E+02  7.917452215E+02  1.729388497E+02  0.00000E+00  9.000E+00
       6     2     1     2   507     0  3.332328261E+02  2.966825043E+01  1.371346144E+02  4.004845928E+02  1.722140678E+02  0.00000E+00  9.000E+00
     -24     2     3     3     0     0 -4.096644657E+02 -1.584150133E+02  2.583224729E+02  5.159477919E+02  8.094030529E+01  0.00000E+00  9.000E+00
      24     2     4     4     0     0  2.060681464E+02 -2.581772899E+01  3.005572712E+01  2.251620321E+02  8.163306867E+01  0.00000E+00  9.000E+00
     -11     1     6     6     0     0  1.995973173E+02 -4.041584138E+01  3.825811386E+01  2.072105513E+02  0.000000000E+00  0.00000E+00  9.000E+00
      12     1     6     6     0     0  6.470829056E+00  1.459811239E+01 -8.202386738E+00  1.795148078E+01  3.153981341E-07  0.00000E+00  9.000E+00
      13     1     5     5     0     0 -4.383254220E+01  8.094541427E+00  2.919827012E+01  5.328557342E+01  0.000000000E+00  0.00000E+00  9.000E+00
     -14     1     5     5     0     0 -3.658319235E+02 -1.665095548E+02  2.291242028E+02  4.626622185E+02  1.044697871E-05  0.00000E+00  9.000E+00
       5     1     4     4   507     0  1.271646797E+02  5.548597942E+01  1.070788873E+02  1.753225606E+02  4.750000000E+00  0.00000E+00  9.000E+00
      -5     1     3     3     0   502 -1.954346819E+02 -1.724845622E+02  8.997788966E+01  2.757974297E+02  4.750000000E+00  0.00000E+00  9.000E+00
      -4     1     1     2     0   501  2.718663215E+02  3.012313251E+02 -5.750590889E+02  7.038071921E+02  0.000000000E+00  0.00000E+00  9.000E+00
#rwgt            2          98   8.4999529196926461E-004           1     7276737           0           1           0
<weights>
0.13550E+02
</weights>
</event>
<event>
     15  10001  1.35503E+01  6.45690E+00 -1.00000E+00  1.93923E-01
      21    -1     0     0   513   501  0.000000000E+00  0.000000000E+00  5.327193267E+02  5.327193267E+02  0.000000000E+00  0.00000E+00  9.000E+00
      21    -1     0     0   501   502  0.000000000E+00  0.000000000E+00 -2.371721675E+02  2.371721675E+02  0.000000000E+00  0.00000E+00  9.000E+00
      -6     2     1     2     0   502 -8.313905689E+01  4.358405538E+01 -1.532299522E+02  2.500715300E+02  1.739099744E+02  0.00000E+00  9.000E+00
       6     2     1     2   507     0  8.855202181E+01 -4.710418852E+01  4.631295656E+02  5.040819699E+02  1.718993098E+02  0.00000E+00  9.000E+00
     -24     2     3     3     0     0  8.090808709E+00 -1.419466319E+01 -8.788267685E+01  1.224228801E+02  8.364835349E+01  0.00000E+00  9.000E+00
      24     2     4     4     0     0  6.948966077E+01 -4.458476599E+00  1.213512439E+02  1.588792354E+02  7.528476650E+01  0.00000E+00  9.000E+00
     -11     1     6     6     0     0  6.806421197E+01 -3.022221731E+01  7.418788582E+01  1.051187984E+02  0.000000000E+00  0.00000E+00  9.000E+00
      12     1     6     6     0     0  1.425448799E+00  2.576374071E+01  4.716335810E+01  5.376043700E+01  1.168007728E-06  0.00000E+00  9.000E+00
      13     1     5     5     0     0  1.246639553E+01 -1.767510425E+01 -1.035515904E+02  1.057863516E+02  0.000000000E+00  0.00000E+00  9.000E+00
     -14     1     5     5     0     0 -4.375586820E+00  3.480441066E+00  1.566891350E+01  1.663652850E+01  2.384185791E-07  0.00000E+00  9.000E+00
       5     1     4     4   512     0  1.240496675E+01 -3.757428650E+01  2.952755805E+02  2.979529177E+02  4.750000000E+00  0.00000E+00  9.000E+00
      -5     1     3     3     0   511 -7.476783372E+01  3.838922656E+01 -4.877498869E+01  9.729092299E+01  4.750000000E+00  0.00000E+00  9.000E+00
      21     1     3     3   511   502 -1.646203189E+01  1.938949200E+01 -1.657228669E+01  3.035772686E+01  2.384185791E-07  0.00000E+00  9.000E+00
      21     1     1     2   513   507 -5.412964919E+00  3.520133140E+00 -1.435245419E+01  1.573799440E+01  1.685873940E-07  0.00000E+00  9.000E+00
      21     1     4     4   507   512  6.657394292E+00 -5.071425419E+00  4.650274113E+01  4.724981680E+01  6.743495762E-07  0.00000E+00  9.000E+00
#rwgt            1          17   8.7862852679719357                1     7278375           0      110110           0
<weights>
0.84111E+01
</weights>
</event>
<event>
     15  10001 -1.35503E+01  7.29475E+01 -1.00000E+00  2.93920E-01
      21    -1     0     0   502   501  0.000000000E+00  0.000000000E+00  2.447196571E+02  2.447196571E+02  0.000000000E+00  0.00000E+00  9.000E+00
       1    -1     0     0   507     0  0.000000000E+00  0.000000000E+00 -3.338030444E+02  3.338030444E+02  0.000000000E+00  0.00000E+00  9.000E+00
      -6     2     1     2     0   501 -6.311670871E+01 -1.361405013E+01  1.450823390E+02  2.342174099E+02  1.721622744E+02  0.00000E+00  9.000E+00
       6     2     1     2   507     0 -9.830763308E+00  1.356010552E+01 -1.252118388E+02  2.131859330E+02  1.717257030E+02  0.00000E+00  9.000E+00
     -24     2     3     3     0     0 -6.047231315E+01 -2.695356910E+01  1.698372047E+02  2.010148070E+02  8.472827737E+01  0.00000E+00  9.000E+00
      24     2     4     4     0     0  3.573694834E+01 -4.458167613E+01 -7.054776646E+01  1.203935698E+02  7.907571666E+01  0.00000E+00  9.000E+00
     -11     1     6     6     0     0 -2.002211348E+01  4.642875902E+00 -2.790818680E+01  3.465989347E+01  0.000000000E+00  0.00000E+00  9.000E+00
      12     1     6     6     0     0  5.575906182E+01 -4.922455203E+01 -4.263957967E+01  8.573367630E+01  1.651812370E-06  0.00000E+00  9.000E+00
      13     1     5     5     0     0 -5.631524786E+01  4.528408692E+00  4.507561366E+01  7.227533863E+01  0.000000000E+00  0.00000E+00  9.000E+00
     -14     1     5     5     0     0 -4.157065286E+00 -3.148197780E+01  1.247615910E+02  1.287394683E+02  0.000000000E+00  0.00000E+00  9.000E+00
       5     1     4     4   511     0 -3.158960589E+01  3.446399373E+01 -2.925767425E+01  5.535561459E+01  4.750000000E+00  0.00000E+00  9.000E+00
      -5     1     3     3     0   513 -2.368778735E+00  1.155480362E+01 -2.728014100E+01  3.009805961E+01  4.750000000E+00  0.00000E+00  9.000E+00
       1     1     1     2   502     0  7.294747202E+01  5.394460779E-02 -1.089538875E+02  1.311193586E+02  0.000000000E+00  0.00000E+00  9.000E+00
      21     1     4     4   507   511 -1.397810576E+01  2.367778791E+01 -2.540639810E+01  3.743674860E+01  0.000000000E+00  0.00000E+00  9.000E+00
      21     1     3     3   513   501 -2.756168289E-01  1.784715354E+00  2.525275368E+00  3.104543318E+00  2.980232239E-08  0.00000E+00  9.000E+00
#rwgt            1          17  -6.8823564703215308                1     7284512           0       11011           0
<weights>
-.11577E+02
</weights>
</event>
<event>
     15  10001  1.35503E+01  2.50654E+02 -1.00000E+00  4.06129E-01
      21    -1     0     0   507   511  0.000000000E+00  0.000000000E+00  2.215747801E+02  2.215747801E+02  0.000000000E+00  0.00000E+00  9.000E+00
      21    -1     0     0   501   502  0.000000000E+00  0.000000000E+00 -1.081123664E+03  1.081123664E+03  0.000000000E+00  0.00000E+00  9.000E+00
      -6     2     1     2     0   502 -3.293018960E+01 -1.330887550E+02 -7.110222273E+02  7.446072177E+02  1.734655206E+02  0.00000E+00  9.000E+00
       6     2     1     2   507     0 -8.936093625E+01 -8.570874203E+01 -2.123339081E+02  2.994431461E+02  1.710238107E+02  0.00000E+00  9.000E+00
     -24     2     3     3     0     0 -5.448083753E+01 -1.549480484E+02 -5.245306260E+02  5.554726874E+02  8.025253563E+01  0.00000E+00  9.000E+00
      24     2     4     4     0     0 -4.221571834E-01 -8.825601561E+01 -1.437621383E+02  1.868293040E+02  8.030151868E+01  0.00000E+00  9.000E+00
     -11     1     6     6     0     0 -1.160163690E+01 -1.014012085E+02 -1.234036352E+02  1.601413758E+02  0.000000000E+00  0.00000E+00  9.000E+00
      12     1     6     6     0     0  1.117947972E+01  1.314519286E+01 -2.035850311E+01  2.668792819E+01  4.129530925E-07  0.00000E+00  9.000E+00
      13     1     5     5     0     0 -2.833819618E+01 -1.540498733E+02 -4.516636189E+02  4.780527602E+02  0.000000000E+00  0.00000E+00  9.000E+00
     -14     1     5     5     0     0 -2.614264135E+01 -8.981751053E-01 -7.286700709E+01  7.741992727E+01  2.336015456E-06  0.00000E+00  9.000E+00
       5     1     4     4   512     0 -6.542840216E+01  3.307395654E+00 -4.784057021E+01  8.125944458E+01  4.750000000E+00  0.00000E+00  9.000E+00
      -5     1     3     3     0   514  1.976362546E+01  1.941202097E+01 -1.753442720E+02  1.775826672E+02  4.750000000E+00  0.00000E+00  9.000E+00
      21     1     1     2   501   511  1.222911258E+02  2.187974971E+02  6.380725147E+01  2.586480805E+02  8.286546324E-06  0.00000E+00  9.000E+00
      21     1     4     4   507   512 -2.351037691E+01 -7.601220776E-01 -2.073119960E+01  3.135439754E+01  2.384185791E-07  0.00000E+00  9.000E+00
      21     1     3     3   514   502  1.787022474E+00  2.447272442E+00 -1.114732928E+01  1.155186313E+01  2.665600750E-07  0.00000E+00  9.000E+00
#rwgt            1          17   5.8510830257444795                1     7291234           0       11011           0
<weights>
0.18885E+02
</weights>
</event>
<event>
     15  10001 -1.35503E+01  2.79691E+01 -1.00000E+00  3.42935E-01
      21    -1     0     0   512   501  0.000000000E+00  0.000000000E+00  2.171331300E+02  2.171331300E+02  0.000000000E+00  0.00000E+00  9.000E+00
      21    -1     0     0   507   502  0.000000000E+00  0.000000000E+00 -3.396007967E+02  3.396007967E+02  0.000000000E+00  0.00000E+00  9.000E+00
      -6     2     1     2     0   501 -6.423469192E+01 -3.773513282E+01  1.149319715E+02  2.201820572E+02  1.723970544E+02  0.00000E+00  9.000E+00
       6     2     1     2   507     0  5.035525479E+01  6.201751386E+01 -2.461186661E+02  3.072552100E+02  1.656790348E+02  0.00000E+00  9.000E+00
     -24     2     3     3     0     0 -4.332966304E+01  2.204437517E+00 -5.087668683E+00  9.120398111E+01  8.006224175E+01  0.00000E+00  9.000E+00
      24     2     4     4     0     0  4.578742646E+01  7.900701904E+01 -2.450274544E+02  2.734413493E+02  7.995699233E+01  0.00000E+00  9.000E+00
     -11     1     6     6     0     0  1.726660581E+01  8.878776919E+01 -1.696321059E+02  1.922406174E+02  0.000000000E+00  0.00000E+00  9.000E+00
      12     1     6     6     0     0  2.852082065E+01 -9.780750154E+00 -7.539534843E+01  8.120073183E+01  1.907348633E-06  0.00000E+00  9.000E+00
      13     1     5     5     0     0 -1.078691044E+01 -3.765828826E+01 -6.587345530E+00  3.972275459E+01  0.000000000E+00  0.00000E+00  9.000E+00
     -14     1     5     5     0     0 -3.254275260E+01  3.986272577E+01  1.499676847E+00  5.148122652E+01  3.031937770E-07  0.00000E+00  9.000E+00
       5     1     4     4   511     0  6.363400099E+00 -2.120571384E+01  7.685795190E+00  2.391253035E+01  4.750000000E+00  0.00000E+00  9.000E+00
      -5     1     3     3     0   513 -2.022797402E+01 -3.763470748E+01  1.186830181E+02  1.262290118E+02  4.750000000E+00  0.00000E+00  9.000E+00
      21     1     1     2   512   502  1.387943713E+01 -2.428238104E+01  8.719027907E+00  2.929665939E+01  4.298152060E-07  0.00000E+00  9.000E+00
      21     1     4     4   507   511 -1.795571772E+00  4.216208657E+00 -8.777006906E+00  9.901330398E+00  1.685873940E-07  0.00000E+00  9.000E+00
      21     1     3     3   513   501 -6.770548560E-01 -2.304862853E+00  1.336622093E+00  2.749064326E+00  4.470348358E-08  0.00000E+00  9.000E+00
#rwgt            1          17  -28.156068863892894                1     7303026           0       11011           0
<weights>
-.19063E+02
</weights>
</event>
<event>
     13  10001  1.35503E+01  1.05244E+01 -1.00000E+00  1.93226E-01
      21    -1     0     0   502   501  0.000000000E+00  0.000000000E+00  1.689476206E+02  1.689476206E+02  0.000000000E+00  0.00000E+00  9.000E+00
      21    -1     0     0   507   511  0.000000000E+00  0.000000000E+00 -4.604346125E+02  4.604346125E+02  0.000000000E+00  0.00000E+00  9.000E+00
      -6     2     1     2     0   501 -3.624724315E+01  1.772277616E+02 -2.001820898E+01  2.513467518E+02  1.733520084E+02  0.00000E+00  9.000E+00
       6     2     1     2   507     0  4.675614007E+01 -1.766566985E+02 -2.379159055E+02  3.428707461E+02  1.660200128E+02  0.00000E+00  9.000E+00
     -24     2     3     3     0     0 -5.046028241E+01  1.310754317E+02  5.034434716E+01  1.658745350E+02  7.247619725E+01  0.00000E+00  9.000E+00
      24     2     4     4     0     0 -1.887512551E+01 -1.008112293E+02 -7.324164197E+01  1.499972803E+02  8.133677926E+01  0.00000E+00  9.000E+00
     -11     1     6     6     0     0  7.459125037E+00  1.190448542E+01 -2.297360125E+00  1.423492827E+01  0.000000000E+00  0.00000E+00  9.000E+00
      12     1     6     6     0     0 -2.633425055E+01 -1.127157148E+02 -7.094428185E+01  1.357623520E+02  1.651812370E-06  0.00000E+00  9.000E+00
      13     1     5     5     0     0 -5.857628062E+01  8.694641296E+01  9.616324596E+00  1.052774101E+02  0.000000000E+00  0.00000E+00  9.000E+00
     -14     1     5     5     0     0  8.115998211E+00  4.412901873E+01  4.072802256E+01  6.059712487E+01  8.259061849E-07  0.00000E+00  9.000E+00
       5     1     4     4   507     0  6.563126558E+01 -7.584546918E+01 -1.646742635E+02  1.928734657E+02  4.750000000E+00  0.00000E+00  9.000E+00
      -5     1     3     3     0   501  1.421303926E+01  4.615232988E+01 -7.036255613E+01  8.547221680E+01  4.750000000E+00  0.00000E+00  9.000E+00
      21     1     1     2   502   511 -1.050889692E+01 -5.710630595E-01 -3.355287741E+01  3.516473532E+01  4.768371582E-07  0.00000E+00  9.000E+00
#rwgt            2         113  0.69456722522186487                1     7329465           0           1           0
<weights>
0.13550E+02
</weights>
</event>
<event>
     15  10001 -1.35503E+01  6.08813E+01 -1.00000E+00  5.86929E-01
      21    -1     0     0   502   512  0.000000000E+00  0.000000000E+00  1.476231517E+02  1.476231517E+02  0.000000000E+00  0.00000E+00  9.000E+00
      21    -1     0     0   507   502  0.000000000E+00  0.000000000E+00 -8.446665914E+02  8.446665914E+02  0.000000000E+00  0.00000E+00  9.000E+00
      -6     2     1     2     0   501  2.862196094E+01 -1.395379424E+02 -9.469138711E+01  2.428396305E+02  1.723791557E+02  0.00000E+00  9.000E+00
       6     2     1     2   507     0 -6.725360063E+01  9.248338355E+01 -6.438484795E+02  6.757718352E+02  1.704420305E+02  0.00000E+00  9.000E+00
     -24     2     3     3     0     0  1.796236404E+01 -7.061657754E+01 -1.259647067E+02  1.660686677E+02  8.001467046E+01  0.00000E+00  9.000E+00
      24     2     4     4     0     0  2.883059425E+00  1.019720808E+02 -3.698857100E+02  3.926975549E+02  8.360211630E+01  0.00000E+00  9.000E+00
     -11     1     6     6     0     0  3.980689533E+01  5.429775687E+01 -2.439403620E+02  2.530607348E+02  0.000000000E+00  0.00000E+00  9.000E+00
      12     1     6     6     0     0 -3.692383590E+01  4.767432396E+01 -1.259453480E+02  1.396368200E+02  3.568322551E-06  0.00000E+00  9.000E+00
      13     1     5     5     0     0 -1.838450422E+01 -1.535876731E+01 -8.490528808E+01  8.822012057E+01  0.000000000E+00  0.00000E+00  9.000E+00
     -14     1     5     5     0     0  3.634686826E+01 -5.525781023E+01 -4.105941866E+01  7.784854709E+01  1.430511475E-06  0.00000E+00  9.000E+00
       5     1     4     4   513     0 -6.719959755E+01 -7.800226344E+00 -2.627465146E+02  2.713575554E+02  4.750000000E+00  0.00000E+00  9.000E+00
      -5     1     3     3     0   511  9.321513462E+00 -6.672270797E+01  3.005935281E+01  7.392521602E+01  4.750000000E+00  0.00000E+00  9.000E+00
      21     1     1     2   501   512  3.863163968E+01  4.705455888E+01  4.149642688E+01  7.367827726E+01  1.261592536E-06  0.00000E+00  9.000E+00
      21     1     4     4   507   513 -2.937062499E+00 -1.688470940E+00 -1.121625493E+01  1.171672501E+01  2.384185791E-07  0.00000E+00  9.000E+00
      21     1     3     3   511   501  1.338083440E+00 -2.198656923E+00  1.213966826E+00  2.845746829E+00  2.980232239E-08  0.00000E+00  9.000E+00
#rwgt            1          17  -35.361642845518297                1     7331440           0       11011           0
<weights>
-.13734E+02
</weights>
</event>
<event>
     15  10001  1.35503E+01  1.47356E+01 -1.00000E+00  2.72293E-01
      21    -1     0     0   502   511  0.000000000E+00  0.000000000E+00  1.699732952E+02  1.699732952E+02  0.000000000E+00  0.00000E+00  9.000E+00
      21    -1     0     0   507   502  0.000000000E+00  0.000000000E+00 -1.338552922E+02  1.338552922E+02  0.000000000E+00  0.00000E+00  9.000E+00
      -6     2     1     2     0   501  1.301253425E+01 -5.939952697E-01  4.984604716E+01  1.138514619E+02  1.015275730E+02  0.00000E+00  9.000E+00
       6     2     1     2   507     0 -1.777527617E+01 -1.335067287E+01 -1.400405077E+01  1.752389554E+02  1.732581229E+02  0.00000E+00  9.000E+00
     -24     2     3     3     0     0  1.762914922E+01 -3.524865404E+00  2.189832771E+01  8.438874481E+01  7.949032593E+01  0.00000E+00  9.000E+00
      24     2     4     4     0     0 -1.668500022E+01 -3.845117489E+00  5.924622300E+01  9.922157923E+01  7.772794018E+01  0.00000E+00  9.000E+00
     -11     1     6     6     0     0 -1.262542925E+01  3.573667925E+01  1.816291600E+01  4.202860009E+01  0.000000000E+00  0.00000E+00  9.000E+00
      12     1     6     6     0     0 -4.059570974E+00 -3.958179674E+01  4.108330699E+01  5.719297914E+01  9.536743164E-07  0.00000E+00  9.000E+00
      13     1     5     5     0     0 -2.606684575E+01  8.152772744E+00  2.756656253E+01  3.880545735E+01  0.000000000E+00  0.00000E+00  9.000E+00
     -14     1     5     5     0     0  4.369599498E+01 -1.167763815E+01 -5.668234813E+00  4.558328746E+01  1.004475328E-06  0.00000E+00  9.000E+00
       5     1     4     4   512     0 -8.411512526E+00 -7.479459182E+00 -5.298161674E+01  5.437196028E+01  4.750000000E+00  0.00000E+00  9.000E+00
      -5     1     3     3     0   513 -1.769590812E+00  7.258974906E-01  2.125066431E+01  2.185890236E+01  4.750000000E+00  0.00000E+00  9.000E+00
      21     1     1     2   501   511  4.762741926E+00  1.394466814E+01  2.760065657E-01  1.473817016E+01  4.884394028E-07  0.00000E+00  9.000E+00
      21     1     4     4   507   512  7.321236572E+00 -2.026096199E+00 -2.026865703E+01  2.164541588E+01  2.384185791E-07  0.00000E+00  9.000E+00
      21     1     3     3   513   501 -2.847024162E+00  2.204972643E+00  6.697055132E+00  7.603814725E+00  1.460009660E-07  0.00000E+00  9.000E+00
#rwgt            1          17   89.708246637033596                1     7340240           0       11011           0
<weights>
-.69385E+01
</weights>
</event>
<event>
     14  10001  1.35503E+01  6.02193E+00 -1.00000E+00  4.03270E-01
      21    -1     0     0   507   512  0.000000000E+00  0.000000000E+00  3.183550241E+01  3.183550241E+01  0.000000000E+00  0.00000E+00  9.000E+00
      21    -1     0     0   501   502  0.000000000E+00  0.000000000E+00 -1.601884869E+03  1.601884869E+03  0.000000000E+00  0.00000E+00  9.000E+00
      -6     2     1     2     0   502  9.028903458E+00 -1.224357620E+02 -5.769388042E+02  6.147343932E+02  1.731125458E+02  0.00000E+00  9.000E+00
       6     2     1     2   507     0 -6.381032285E+00  1.170272167E+02 -8.314460142E+02  8.572093120E+02  1.725376567E+02  0.00000E+00  9.000E+00
     -24     2     3     3     0     0  2.075327013E+01 -1.297571402E+02 -5.784086127E+02  5.985299931E+02  8.008754994E+01  0.00000E+00  9.000E+00
      24     2     4     4     0     0 -3.759732427E+01  1.032989543E+01 -4.922191907E+02  5.001992624E+02  7.999565504E+01  0.00000E+00  9.000E+00
     -11     1     6     6     0     0  6.290882449E-01 -3.018750998E+01 -1.153833589E+02  1.192686087E+02  0.000000000E+00  0.00000E+00  9.000E+00
      12     1     6     6     0     0 -3.822641251E+01  4.051740542E+01 -3.768358318E+02  3.809306537E+02  0.000000000E+00  0.00000E+00  9.000E+00
      13     1     5     5     0     0  2.239982691E+00 -1.176861290E+02 -5.504319642E+02  5.628768868E+02  0.000000000E+00  0.00000E+00  9.000E+00
     -14     1     5     5     0     0  1.851328744E+01 -1.207101122E+01 -2.797664857E+01  3.565310630E+01  9.536743164E-07  0.00000E+00  9.000E+00
       5     1     4     4   507     0  3.121629198E+01  1.066973213E+02 -3.392268235E+02  3.570100496E+02  4.750000000E+00  0.00000E+00  9.000E+00
      -5     1     3     3     0   511 -1.216099763E+01  5.992857940E+00  2.343658722E+00  1.455539233E+01  4.750000000E+00  0.00000E+00  9.000E+00
      21     1     1     2   501   512 -2.647871172E+00  5.408545346E+00 -1.616645481E+02  1.617766661E+02  3.303624740E-06  0.00000E+00  9.000E+00
      21     1     3     3   511   502  4.366309568E-01  1.328520275E+00 -8.738501822E-01  1.649007840E+00  5.268356064E-08  0.00000E+00  9.000E+00
#rwgt            1          17   3.2514354825899736                1     7357030           0         111           0
<weights>
0.10717E+02
</weights>
</event>
<event>
     14  10001  1.35503E+01  1.90242E+01 -1.00000E+00  2.74184E-01
      21    -1     0     0   502   511  0.000000000E+00  0.000000000E+00  1.699442014E+02  1.699442014E+02  0.000000000E+00  0.00000E+00  9.000E+00
      21    -1     0     0   507   502  0.000000000E+00  0.000000000E+00 -2.869239450E+02  2.869239450E+02  0.000000000E+00  0.00000E+00  9.000E+00
      -6     2     1     2     0   501 -5.378667276E+01  4.315192095E+01  4.146899897E+01  1.907243920E+02  1.729191180E+02  0.00000E+00  9.000E+00
       6     2     1     2   507     0  3.710046126E+01 -3.401451034E+01 -1.095877917E+02  2.137098488E+02  1.764340791E+02  0.00000E+00  9.000E+00
     -24     2     3     3     0     0  2.017602995E+01 -1.913030647E+01  9.463410835E+00  8.855110860E+01  8.353862507E+01  0.00000E+00  9.000E+00
      24     2     4     4     0     0  4.673615923E+01  1.562590113E+01 -3.498000286E-01  9.324193425E+01  7.915490242E+01  0.00000E+00  9.000E+00
     -11     1     6     6     0     0  2.010540131E+01 -2.893886067E+01 -1.644876453E+01  3.888761594E+01  0.000000000E+00  0.00000E+00  9.000E+00
      12     1     6     6     0     0  2.663075792E+01  4.456476180E+01  1.609896450E+01  5.435431831E+01  1.994752947E-06  0.00000E+00  9.000E+00
      13     1     5     5     0     0  3.175271021E+01  1.280302054E+01  3.274196376E+01  4.737286281E+01  0.000000000E+00  0.00000E+00  9.000E+00
     -14     1     5     5     0     0 -1.157668026E+01 -3.193332701E+01 -2.327855292E+01  4.117824578E+01  1.261592536E-06  0.00000E+00  9.000E+00
       5     1     4     4   507     0 -9.635697966E+00 -4.964041146E+01 -1.092379916E+02  1.204679146E+02  4.750000000E+00  0.00000E+00  9.000E+00
      -5     1     3     3     0   512 -5.507977543E+01  4.970044143E+01  2.457884964E+01  7.829813465E+01  4.750000000E+00  0.00000E+00  9.000E+00
      21     1     1     2   501   511  1.668621150E+01 -9.137410613E+00 -4.886095096E+01  5.243390560E+01  1.348699152E-06  0.00000E+00  9.000E+00
      21     1     3     3   512   501 -1.888292728E+01  1.258178599E+01  7.426738493E+00  2.387514871E+01  4.380028980E-07  0.00000E+00  9.000E+00
#rwgt            1          17   22.133850973606300                1     7367809           0         111           0
<weights>
0.13725E+02
</weights>
</event>
<event>
     14  10001  1.35503E+01  2.80918E+01 -1.00000E+00  4.73205E-01
      21    -1     0     0   507   512  0.000000000E+00  0.000000000E+00  2.914656612E+03  2.914656612E+03  0.000000000E+00  0.00000E+00  9.000E+00
      21    -1     0     0   501   502  0.000000000E+00  0.000000000E+00 -9.297157485E+01  9.297157485E+01  0.000000000E+00  0.00000E+00  9.000E+00
      -6     2     1     2     0   502 -3.869952001E+01 -9.060626513E+00  1.219019157E+02  2.152730215E+02  1.729238241E+02  0.00000E+00  9.000E+00
       6     2     1     2   507     0  1.690168925E+01  2.678073378E+01  1.231968182E+02  2.156157284E+02  1.740971324E+02  0.00000E+00  9.000E+00
     -24     2     3     3     0     0 -2.777779644E+01  1.741145599E+01  1.522313537E+02  1.726205338E+02  7.448958897E+01  0.00000E+00  9.000E+00
      24     2     4     4     0     0  3.493563577E+01  6.885987147E+01  1.271578777E+02  1.694190884E+02  8.106491904E+01  0.00000E+00  9.000E+00
     -11     1     6     6     0     0  4.779686357E+01  8.361753984E+00  4.203155964E+01  6.419588073E+01  0.000000000E+00  0.00000E+00  9.000E+00
      12     1     6     6     0     0 -1.286122781E+01  6.049811749E+01  8.512631806E+01  1.052232076E+02  1.651812370E-06  0.00000E+00  9.000E+00
      13     1     5     5     0     0  1.438364122E+01  3.302140458E+01  5.921479975E+01  6.930869213E+01  0.000000000E+00  0.00000E+00  9.000E+00
     -14     1     5     5     0     0 -4.216143766E+01 -1.560994859E+01  9.301655395E+01  1.033118417E+02  1.907348633E-06  0.00000E+00  9.000E+00
       5     1     4     4   507     0 -1.803394652E+01 -4.207913769E+01 -3.961059546E+00  4.619664001E+01  4.750000000E+00  0.00000E+00  9.000E+00
      -5     1     3     3     0   511 -9.311547586E+00 -2.525956752E+01 -3.003912653E+01  4.061603492E+01  4.750000000E+00  0.00000E+00  9.000E+00
      21     1     1     2   501   512  2.179783077E+01 -1.772010727E+01  2.576586303E+03  2.576739437E+03  5.285799584E-05  0.00000E+00  9.000E+00
      21     1     3     3   511   502 -1.610175987E+00 -1.212514987E+00 -2.903114608E-01  2.036452810E+00  1.111360929E-07  0.00000E+00  9.000E+00
#rwgt            1          17   89.213716605410269                1     7377822           0         111           0
<weights>
0.13089E+02
</weights>
</event>
<event>
     15  10001  1.35503E+01  2.82789E+01 -1.00000E+00  2.53323E-01
      21    -1     0     0   507   501  0.000000000E+00  0.000000000E+00  9.136707221E+02  9.136707221E+02  0.000000000E+00  0.00000E+00  9.000E+00
      -1    -1     0     0     0   502  0.000000000E+00  0.000000000E+00 -3.808932984E+02  3.808932984E+02  0.000000000E+00  0.00000E+00  9.000E+00
      -6     2     1     2     0   502  1.028065933E+02  3.168446712E+01  7.096443541E+01  2.150646771E+02  1.721736424E+02  0.00000E+00  9.000E+00
       6     2     1     2   507     0 -1.257013108E+02 -4.828346483E+01  7.544227341E+02  7.855262864E+02  1.725275990E+02  0.00000E+00  9.000E+00
     -24     2     3     3     0     0  2.752394227E+00 -2.496754502E+01  5.121392658E+00  8.221343036E+01  7.811443843E+01  0.00000E+00  9.000E+00
      24     2     4     4     0     0 -1.124105434E+02 -3.297805795E+01  3.281579636E+02  3.587049269E+02  8.519326803E+01  0.00000E+00  9.000E+00
     -11     1     6     6     0     0 -6.980554809E+01 -3.171058318E+01  2.947221233E+02  3.045316167E+02  0.000000000E+00  0.00000E+00  9.000E+00
      12     1     6     6     0     0 -4.260499527E+01 -1.267474767E+00  3.343584033E+01  5.417331015E+01  1.651812370E-06  0.00000E+00  9.000E+00
      13     1     5     5     0     0 -3.146438399E+01  8.418735089E+00  1.021797616E+01  3.413633837E+01  0.000000000E+00  0.00000E+00  9.000E+00
     -14     1     5     5     0     0  3.421677822E+01 -3.338628011E+01 -5.096583502E+00  4.807709199E+01  1.183118417E-06  0.00000E+00  9.000E+00
       5     1     4     4   511     0 -1.078098570E+01 -9.506358771E+00  3.320784217E+02  3.324232861E+02  4.750000000E+00  0.00000E+00  9.000E+00
      -5     1     3     3     0   512  7.905493240E+01  4.591365969E+01  4.868476318E+01  1.036846910E+02  4.750000000E+00  0.00000E+00  9.000E+00
      -1     1     1     2     0   501  2.289471751E+01  1.659899772E+01 -2.926097459E+02  2.939730569E+02  0.000000000E+00  0.00000E+00  9.000E+00
      21     1     3     3   512   502  2.099926669E+01  1.073835245E+01  1.715827957E+01  2.916655572E+01  4.768371582E-07  0.00000E+00  9.000E+00
      21     1     4     4   507   511 -2.509781759E+00 -5.799048113E+00  9.418634883E+01  9.439807344E+01  1.907348633E-06  0.00000E+00  9.000E+00
#rwgt            1          17   30.292182230557490                1     7389236           0       11110           0
<weights>
0.90420E+01
</weights>
</event>
<event>
     14  10001  1.35503E+01  2.47912E+01 -1.00000E+00  7.39496E-01
       2    -1     0     0   511     0  0.000000000E+00  0.000000000E+00  1.758697109E+03  1.758697109E+03  0.000000000E+00  0.00000E+00  9.000E+00
      -2    -1     0     0     0   502  0.000000000E+00  0.000000000E+00 -8.793867587E+01  8.793867587E+01  0.000000000E+00  0.00000E+00  9.000E+00
      -6     2     1     2     0   502  1.459471556E+02 -1.890862407E+02  1.061629678E+03  1.101731697E+03  1.723397250E+02  0.00000E+00  9.000E+00
       6     2     1     2   507     0 -1.231834194E+02  1.989053938E+02  6.413696735E+02  7.042337020E+02  1.727788717E+02  0.00000E+00  9.000E+00
     -24     2     3     3     0     0  1.247248805E+02 -7.333957253E+01  4.712087379E+02  4.996792699E+02  8.189450202E+01  0.00000E+00  9.000E+00
      24     2     4     4     0     0 -7.253435495E+01  2.072972649E+02  4.668439487E+02  5.221606804E+02  8.046809950E+01  0.00000E+00  9.000E+00
     -11     1     6     6     0     0 -4.693167949E+01  8.056381468E+01  2.786296522E+02  2.938155780E+02  0.000000000E+00  0.00000E+00  9.000E+00
      12     1     6     6     0     0 -2.560267546E+01  1.267334502E+02  1.882142965E+02  2.283451024E+02  3.814697266E-06  0.00000E+00  9.000E+00
      13     1     5     5     0     0  1.288693477E+02 -4.939415945E+01  4.323903446E+02  4.538815945E+02  0.000000000E+00  0.00000E+00  9.000E+00
     -14     1     5     5     0     0 -4.144467225E+00 -2.394541308E+01  3.881839329E+01  4.579767542E+01  4.768371582E-07  0.00000E+00  9.000E+00
       5     1     4     4   513     0 -4.820163592E+01 -8.214386994E+00  1.695711578E+02  1.765440850E+02  4.750000000E+00  0.00000E+00  9.000E+00
      -5     1     3     3     0   502  2.122227510E+01 -1.157466682E+02  5.904209399E+02  6.020524271E+02  4.750000000E+00  0.00000E+00  9.000E+00
      21     1     1     2   511   507 -2.276373623E+01 -9.819153079E+00 -3.224091833E+01  4.067038565E+01  2.384185791E-06  0.00000E+00  9.000E+00
      21     1     4     4   507   513 -2.447428506E+00 -1.774841517E-01  4.954566953E+00  5.528936662E+00  5.960464478E-08  0.00000E+00  9.000E+00
#rwgt            1           8   2.1190392471045008                1     7401362           0         110           0
<weights>
0.15763E+02
</weights>
</event>
<event>
     13  10001  1.35503E+01  2.18319E+02 -1.00000E+00  1.10280E-01
      21    -1     0     0   507   512  0.000000000E+00  0.000000000E+00  1.121915054E+03  1.121915054E+03  0.000000000E+00  0.00000E+00  9.000E+00
      -1    -1     0     0     0   502  0.000000000E+00  0.000000000E+00 -1.209976405E+02  1.209976405E+02  0.000000000E+00  0.00000E+00  9.000E+00
      -6     2     1     2     0   502  9.951029058E+01  4.227414267E+01  5.490221306E+02  5.855387002E+02  1.724554102E+02  0.00000E+00  9.000E+00
       6     2     1     2   507     0  2.871435677E+01  1.344219067E+02  9.583447763E+01  2.397110307E+02  1.714157748E+02  0.00000E+00  9.000E+00
     -24     2     3     3     0     0  3.364766969E+00  6.327662960E+01  3.278217579E+02  3.433874385E+02  8.020333198E+01  0.00000E+00  9.000E+00
      24     2     4     4     0     0  6.896549584E+01  3.273811335E+01  4.551821149E+01  1.192368129E+02  7.948261625E+01  0.00000E+00  9.000E+00
     -11     1     6     6     0     0  1.595699786E+01  7.596475542E+00  5.680651277E+01  5.949211809E+01  0.000000000E+00  0.00000E+00  9.000E+00
      12     1     6     6     0     0  5.300849798E+01  2.514163781E+01 -1.128830128E+01  5.974469479E+01  2.008950656E-06  0.00000E+00  9.000E+00
      13     1     5     5     0     0  7.979810412E+00 -1.313255177E+01  1.551808223E+01  2.183923456E+01  0.000000000E+00  0.00000E+00  9.000E+00
     -14     1     5     5     0     0 -4.615043443E+00  7.640918137E+01  3.123036757E+02  3.215482040E+02  3.814697266E-06  0.00000E+00  9.000E+00
       5     1     4     4   507     0 -4.025113907E+01  1.016837934E+02  5.031626614E+01  1.204742179E+02  4.750000000E+00  0.00000E+00  9.000E+00
      -5     1     3     3     0   502  9.614552361E+01 -2.100248693E+01  2.212003727E+02  2.421512617E+02  4.750000000E+00  0.00000E+00  9.000E+00
      -1     1     1     2     0   512 -1.282246474E+02 -1.766960494E+02  3.560608051E+02  4.176629633E+02  0.000000000E+00  0.00000E+00  9.000E+00
#rwgt            2          81   8.1442946600996970E-003           1     7418522           0           1           0
<weights>
0.13550E+02
</weights>
</event>
<event>
     15  10001  1.35503E+01  4.62344E+01 -1.00000E+00  4.47005E-01
      21    -1     0     0   507   511  0.000000000E+00  0.000000000E+00  2.473278328E+02  2.473278328E+02  0.000000000E+00  0.00000E+00  9.000E+00
      21    -1     0     0   501   502  0.000000000E+00  0.000000000E+00 -4.865987500E+02  4.865987500E+02  0.000000000E+00  0.00000E+00  9.000E+00
      -6     2     1     2     0   502  1.061590300E+02 -1.527757443E+02 -3.334037912E+02  4.190504255E+02  1.727281199E+02  0.00000E+00  9.000E+00
       6     2     1     2   507     0 -1.402581736E+02  1.215528086E+02  8.874326664E+01  2.683286421E+02  1.722714493E+02  0.00000E+00  9.000E+00
     -24     2     3     3     0     0  1.184674162E+02 -6.474496185E+01 -2.560423611E+02  3.009882815E+02  8.252161005E+01  0.00000E+00  9.000E+00
      24     2     4     4     0     0 -1.336564486E+02  1.499327405E+02  9.355526959E+01  2.354071593E+02  7.949886312E+01  0.00000E+00  9.000E+00
     -11     1     6     6     0     0 -7.470131591E+00  4.904902013E+01  4.428686253E+01  6.650515344E+01  0.000000000E+00  0.00000E+00  9.000E+00
      12     1     6     6     0     0 -1.261863170E+02  1.008837204E+02  4.926840706E+01  1.689020058E+02  2.132480600E-06  0.00000E+00  9.000E+00
      13     1     5     5     0     0  5.536294804E+01 -5.332348034E+01 -6.912806197E+01  1.033786173E+02  0.000000000E+00  0.00000E+00  9.000E+00
     -14     1     5     5     0     0  6.310446813E+01 -1.142148151E+01 -1.869142992E+02  1.976096642E+02  2.697398305E-06  0.00000E+00  9.000E+00
       5     1     4     4   512     0 -2.666088360E+00 -2.805034787E+01 -4.783551010E+00  2.897196754E+01  4.750000000E+00  0.00000E+00  9.000E+00
      -5     1     3     3     0   513 -1.060557659E+01 -8.289127095E+01 -7.150206174E+01  1.100842786E+02  4.750000000E+00  0.00000E+00  9.000E+00
      21     1     1     2   501   511  3.409914358E+01  3.122293576E+01  5.389607388E+00  4.654751527E+01  1.206902071E-06  0.00000E+00  9.000E+00
      21     1     4     4   507   512 -3.935636638E+00 -3.295840638E-01 -2.845194233E-02  3.949515275E+00  6.496517372E-08  0.00000E+00  9.000E+00
      21     1     3     3   513   502 -1.702809575E+00 -5.139511550E+00 -5.859368326E+00  7.977865417E+00  1.192092896E-07  0.00000E+00  9.000E+00
#rwgt            1          17   27.939262290899993                1     7421984           0       11011           0
<weights>
0.18403E+02
</weights>
</event>
<event>
     15  10001  1.35503E+01  9.18504E+01 -1.00000E+00  5.44368E-01
      21    -1     0     0   507   512  0.000000000E+00  0.000000000E+00  4.026056548E+02  4.026056548E+02  0.000000000E+00  0.00000E+00  9.000E+00
      21    -1     0     0   501   502  0.000000000E+00  0.000000000E+00 -6.352296729E+02  6.352296729E+02  0.000000000E+00  0.00000E+00  9.000E+00
      -6     2     1     2     0   502  7.273982406E+00 -7.823021699E+01 -4.394787181E+02  4.787348648E+02  1.728370605E+02  0.00000E+00  9.000E+00
       6     2     1     2   507     0  5.324405874E+01  9.135625916E+00 -1.218964174E+02  2.177592949E+02  1.721684771E+02  0.00000E+00  9.000E+00
     -24     2     3     3     0     0  5.336789512E+01 -8.388450352E+01 -1.898940702E+02  2.246814919E+02  6.735928116E+01  0.00000E+00  9.000E+00
      24     2     4     4     0     0 -9.254635917E+00  5.925879387E+01 -7.268705725E+01  1.232667488E+02  7.946087164E+01  0.00000E+00  9.000E+00
     -11     1     6     6     0     0 -1.711407159E+01  5.760457195E+01 -1.104009248E+01  6.109878720E+01  0.000000000E+00  0.00000E+00  9.000E+00
      12     1     6     6     0     0  7.859435673E+00  1.654221920E+00 -6.164696477E+01  6.216796156E+01  6.743495762E-07  0.00000E+00  9.000E+00
      13     1     5     5     0     0  1.086072774E+01 -6.065087659E+01 -5.980997420E+01  8.587035142E+01  0.000000000E+00  0.00000E+00  9.000E+00
     -14     1     5     5     0     0  4.250716738E+01 -2.323362693E+01 -1.300840960E+02  1.388111405E+02  1.907348633E-06  0.00000E+00  9.000E+00
       5     1     4     4   511     0  6.083792274E+01 -4.922443491E+01 -4.927917369E+01  9.260290112E+01  4.750000000E+00  0.00000E+00  9.000E+00
      -5     1     3     3     0   514 -4.612866379E+01  5.975343387E+00 -2.427924650E+02  2.472535175E+02  4.750000000E+00  0.00000E+00  9.000E+00
      21     1     1     2   501   512 -6.051804115E+01  6.909459107E+01  3.287511173E+02  3.413411680E+02  9.344061824E-06  0.00000E+00  9.000E+00
      21     1     4     4   507   511  1.660771911E+00 -8.987330375E-01  6.981355603E-02  1.889645032E+00  4.526266039E-08  0.00000E+00  9.000E+00
      21     1     3     3   514   502  3.475107747E-02 -3.210568485E-01 -6.792182914E+00  6.799855431E+00  8.429369702E-08  0.00000E+00  9.000E+00
#rwgt            1          17   9.7456481358124876                1     7439078           0       11011           0
<weights>
0.12782E+02
</weights>
</event>
<event>
     13  10001  1.35503E+01  1.02493E+02 -1.00000E+00  1.23349E-01
      21    -1     0     0   511   501  0.000000000E+00  0.000000000E+00  5.767808190E+01  5.767808190E+01  0.000000000E+00  0.00000E+00  9.000E+00
      21    -1     0     0   507   502  0.000000000E+00  0.000000000E+00 -1.175567097E+03  1.175567097E+03  0.000000000E+00  0.00000E+00  9.000E+00
      -6     2     1     2     0   501 -3.168071667E+01 -6.668415973E+01 -7.484186524E+02  7.715033180E+02  1.721523905E+02  0.00000E+00  9.000E+00
       6     2     1     2   507     0 -1.346689813E+01 -2.532898556E+01 -2.438842917E+02  2.996413142E+02  1.717045560E+02  0.00000E+00  9.000E+00
     -24     2     3     3     0     0 -2.554653278E+01 -2.969326111E+01 -7.118250403E+02  7.188952413E+02  9.263457719E+01  0.00000E+00  9.000E+00
      24     2     4     4     0     0  2.037757144E+01 -5.287318881E+01 -2.354446896E+02  2.549432087E+02  7.969327627E+01  0.00000E+00  9.000E+00
     -11     1     6     6     0     0 -1.268172834E+01  1.158819908E+01 -9.880056441E+01  1.002829204E+02  0.000000000E+00  0.00000E+00  9.000E+00
      12     1     6     6     0     0  3.305929978E+01 -6.446138789E+01 -1.366441252E+02  1.546602883E+02  0.000000000E+00  0.00000E+00  9.000E+00
      13     1     5     5     0     0 -5.154833278E+01 -3.611845391E+01 -3.185324661E+02  3.246917081E+02  0.000000000E+00  0.00000E+00  9.000E+00
     -14     1     5     5     0     0  2.600180000E+01  6.425192797E+00 -3.932925741E+02  3.942035332E+02  7.629394531E-06  0.00000E+00  9.000E+00
       5     1     4     4   507     0 -3.384446957E+01  2.754420325E+01 -8.439602152E+00  4.469810552E+01  4.750000000E+00  0.00000E+00  9.000E+00
      -5     1     3     3     0   501 -6.134183888E+00 -3.699089862E+01 -3.659361213E+01  5.260807677E+01  4.750000000E+00  0.00000E+00  9.000E+00
      21     1     1     2   511   502  4.514761479E+01  9.201314529E+01 -1.255860713E+02  1.621005470E+02  2.697398305E-06  0.00000E+00  9.000E+00
#rwgt            2         113   27.529264403620683                1     7452813           0           1           0
<weights>
0.13550E+02
</weights>
</event>
<event>
     15  10001  1.35503E+01  8.04656E+00 -1.00000E+00  3.71827E-01
      21    -1     0     0   507   512  0.000000000E+00  0.000000000E+00  3.642215777E+02  3.642215777E+02  0.000000000E+00  0.00000E+00  9.000E+00
      21    -1     0     0   501   502  0.000000000E+00  0.000000000E+00 -1.335795695E+02  1.335795695E+02  0.000000000E+00  0.00000E+00  9.000E+00
      -6     2     1     2     0   502  7.072093360E+01  4.760176710E+00 -1.318897665E+01  1.855247379E+02  1.709425913E+02  0.00000E+00  9.000E+00
       6     2     1     2   507     0 -7.173156427E+01  3.222663324E+00  2.352170467E+02  3.004888293E+02  1.726576805E+02  0.00000E+00  9.000E+00
     -24     2     3     3     0     0  2.314958555E+01 -5.684581172E+01 -2.932167573E+01  1.056945727E+02  8.089643020E+01  0.00000E+00  9.000E+00
      24     2     4     4     0     0 -9.219037794E+01 -1.322626556E+01  2.423300259E+02  2.719999490E+02  8.115498085E+01  0.00000E+00  9.000E+00
     -11     1     6     6     0     0 -6.616517739E+01  1.049006902E+01  2.207761490E+02  2.307162331E+02  0.000000000E+00  0.00000E+00  9.000E+00
      12     1     6     6     0     0 -2.602520054E+01 -2.371633458E+01  2.155387690E+01  4.128371590E+01  6.743495762E-07  0.00000E+00  9.000E+00
      13     1     5     5     0     0 -1.124461705E+01 -1.649579709E+01 -4.597389186E+01  5.012136737E+01  0.000000000E+00  0.00000E+00  9.000E+00
     -14     1     5     5     0     0  3.439420260E+01 -4.035001463E+01  1.665221613E+01  5.557320538E+01  1.215700987E-06  0.00000E+00  9.000E+00
       5     1     4     4   511     0  2.087386437E+01  1.553065703E+01 -7.357255772E+00  2.745198051E+01  4.750000000E+00  0.00000E+00  9.000E+00
      -5     1     3     3     0   513  4.150467309E+01  5.603789330E+01  1.352448102E+01  7.119239749E+01  4.750000000E+00  0.00000E+00  9.000E+00
      21     1     1     2   501   512  1.010630667E+00 -7.982840034E+00  8.613938239E+00  1.178757996E+01  0.000000000E+00  0.00000E+00  9.000E+00
      21     1     3     3   513   502  6.066674956E+00  5.568095132E+00  2.608218071E+00  8.637767647E+00  5.161913656E-08  0.00000E+00  9.000E+00
      21     1     4     4   507   511 -4.150506959E-01  9.182718551E-01  2.442765692E-01  1.036899861E+00  2.980232239E-08  0.00000E+00  9.000E+00
#rwgt            1          17   3.7753693977591021                1     7457092           0       11110           0
<weights>
0.17148E+02
</weights>
</event>
<event>
     15  10001  1.35503E+01  1.60073E+01 -1.00000E+00  5.03375E-01
       1    -1     0     0   511     0  0.000000000E+00  0.000000000E+00  2.098634538E+03  2.098634538E+03  0.000000000E+00  0.00000E+00  9.000E+00
      -1    -1     0     0     0   502  0.000000000E+00  0.000000000E+00 -2.828312542E+01  2.828312542E+01  0.000000000E+00  0.00000E+00  9.000E+00
      -6     2     1     2     0   502 -5.081142480E+01 -1.296832251E+02  6.895880639E+02  7.251917327E+02  1.759881002E+02  0.00000E+00  9.000E+00
       6     2     1     2   507     0  3.595775748E+01  1.356498866E+02  1.206267550E+03  1.226497462E+03  1.718160944E+02  0.00000E+00  9.000E+00
     -24     2     3     3     0     0  2.585535015E+01 -9.348406804E+01  3.070442147E+02  3.333241298E+02  8.614554920E+01  0.00000E+00  9.000E+00
      24     2     4     4     0     0  6.576734115E+00  6.354689249E+01  3.118984091E+02  3.286455832E+02  8.152202610E+01  0.00000E+00  9.000E+00
     -11     1     6     6     0     0  3.793754067E+01  4.451215153E+01  2.494890556E+02  2.562525659E+02  0.000000000E+00  0.00000E+00  9.000E+00
      12     1     6     6     0     0 -3.136080656E+01  1.903474096E+01  6.240935348E+01  7.239301729E+01  2.861022949E-06  0.00000E+00  9.000E+00
      13     1     5     5     0     0  4.005688682E+01 -3.296872140E+01  2.220226504E+02  2.280033949E+02  0.000000000E+00  0.00000E+00  9.000E+00
     -14     1     5     5     0     0 -1.420153667E+01 -6.051534663E+01  8.502156425E+01  1.053207349E+02  2.523185073E-06  0.00000E+00  9.000E+00
       5     1     4     4   512     0  2.697885249E+01  7.020225849E+01  8.753398435E+02  8.785776117E+02  4.750000000E+00  0.00000E+00  9.000E+00
      -5     1     3     3     0   513 -6.524797791E+01 -2.986537957E+01  3.238955271E+02  3.317832341E+02  4.750000000E+00  0.00000E+00  9.000E+00
      21     1     1     2   511   507  1.485366732E+01 -5.966661505E+00  1.744957986E+02  1.752284686E+02  1.907348633E-06  0.00000E+00  9.000E+00
      21     1     4     4   507   512  2.402170883E+00  1.900735671E+00  1.902929705E+01  1.927426697E+01  2.384185791E-07  0.00000E+00  9.000E+00
      21     1     3     3   513   502 -1.141879704E+01 -6.333777538E+00  5.864832219E+01  6.008436868E+01  0.000000000E+00  0.00000E+00  9.000E+00
#rwgt            1           4   2.6153944984612147                1     7470021           0       11011           0
<weights>
0.22715E+02
</weights>
</event>
<event>
     15  10001  1.35503E+01  1.92372E+01 -1.00000E+00  4.22264E-01
       2    -1     0     0   507     0  0.000000000E+00  0.000000000E+00  7.281399163E+02  7.281399163E+02  0.000000000E+00  0.00000E+00  9.000E+00
      21    -1     0     0   501   502  0.000000000E+00  0.000000000E+00 -1.945446101E+02  1.945446101E+02  0.000000000E+00  0.00000E+00  9.000E+00
      -6     2     1     2     0   502 -1.742842867E+01  3.701497799E+01 -1.088058495E+02  2.080714451E+02  1.725721724E+02  0.00000E+00  9.000E+00
       6     2     1     2   507     0 -1.710488721E+00 -3.895706908E+01  1.815184200E+02  2.533290409E+02  1.723545391E+02  0.00000E+00  9.000E+00
     -24     2     3     3     0     0 -5.507060992E+01 -2.084932805E+01 -8.364826771E+01  1.331564808E+02  8.524171000E+01  0.00000E+00  9.000E+00
      24     2     4     4     0     0  2.820611361E+01 -2.783961366E+01  1.943242829E+02  2.150552883E+02  8.316382139E+01  0.00000E+00  9.000E+00
     -11     1     6     6     0     0 -2.368859058E+01 -1.075643381E+01  2.134142669E+01  3.364976501E+01  0.000000000E+00  0.00000E+00  9.000E+00
      12     1     6     6     0     0  5.189470419E+01 -1.708317985E+01  1.729828562E+02  1.814055233E+02  5.722045898E-06  0.00000E+00  9.000E+00
      13     1     5     5     0     0  5.571662674E+00  2.522415338E+01 -3.204799472E+01  4.116279029E+01  0.000000000E+00  0.00000E+00  9.000E+00
     -14     1     5     5     0     0 -6.064227259E+01 -4.607348143E+01 -5.160027299E+01  9.199369048E+01  3.234066955E-06  0.00000E+00  9.000E+00
       5     1     4     4   511     0 -2.848608963E+01 -1.232051946E+01 -1.548377364E+01  3.500803120E+01  4.750000000E+00  0.00000E+00  9.000E+00
      -5     1     3     3     0   512  3.800302191E+01  5.811279441E+01 -2.390663240E+01  7.358951094E+01  4.750000000E+00  0.00000E+00  9.000E+00
       2     1     1     2   501     0  1.913891739E+01  1.942091087E+00  4.608827357E+02  4.612840404E+02  0.000000000E+00  0.00000E+00  9.000E+00
      21     1     4     4   507   511 -1.430512702E+00  1.203064035E+00  2.677910776E+00  3.265721327E+00  7.884953353E-08  0.00000E+00  9.000E+00
      21     1     3     3   512   502 -3.608406596E-01 -2.484883692E-01 -1.250949348E+00  1.325453403E+00  1.490116119E-08  0.00000E+00  9.000E+00
#rwgt            1          17   14.190352283767426                1     7471900           0       11011           0
<weights>
0.16000E+02
</weights>
</event>
<event>
     15  10001 -1.35503E+01  5.36443E+01 -1.00000E+00  2.23517E-01
      21    -1     0     0   511   501  0.000000000E+00  0.000000000E+00  2.183175002E+02  2.183175002E+02  0.000000000E+00  0.00000E+00  9.000E+00
      21    -1     0     0   507   502  0.000000000E+00  0.000000000E+00 -5.929553328E+02  5.929553328E+02  0.000000000E+00  0.00000E+00  9.000E+00
      -6     2     1     2     0   501  1.458539186E+02 -1.047782733E+02  4.837200182E+01  2.532947662E+02  1.719492247E+02  0.00000E+00  9.000E+00
       6     2     1     2   507     0 -1.007075683E+02  1.337527665E+02 -1.572471189E+02  2.868553360E+02  1.718357080E+02  0.00000E+00  9.000E+00
     -24     2     3     3     0     0  2.997915118E+01 -7.480234586E+01  6.410687562E+01  1.308846083E+02  8.078953351E+01  0.00000E+00  9.000E+00
      24     2     4     4     0     0 -1.121840784E+02  1.506735887E+02 -1.630021754E+02  2.614230985E+02  8.052657591E+01  0.00000E+00  9.000E+00
     -11     1     6     6     0     0  4.736623286E+00  3.805908294E+01 -1.328344432E+01  4.058792046E+01  0.000000000E+00  0.00000E+00  9.000E+00
      12     1     6     6     0     0 -1.169207017E+02  1.126145058E+02 -1.497187311E+02  2.208351780E+02  1.907348633E-06  0.00000E+00  9.000E+00
      13     1     5     5     0     0  9.729532867E+00  3.352284977E+00 -1.477827373E+01  1.800830361E+01  0.000000000E+00  0.00000E+00  9.000E+00
     -14     1     5     5     0     0  2.024961831E+01 -7.815463083E+01  7.888514935E+01  1.128763046E+02  3.162979880E-06  0.00000E+00  9.000E+00
       5     1     4     4   513     0  1.205480139E+01 -1.830376987E+01  6.990322248E+00  2.348985596E+01  4.750000000E+00  0.00000E+00  9.000E+00
      -5     1     3     3     0   512  1.084846674E+02 -3.205182358E+01 -1.741672866E+01  1.145519419E+02  4.750000000E+00  0.00000E+00  9.000E+00
      21     1     1     2   511   502 -4.514635036E+01 -2.897449314E+01 -2.657627155E+02  2.711227308E+02  5.394796609E-06  0.00000E+00  9.000E+00
      21     1     3     3   512   501  7.390100029E+00  2.075896121E+00  1.681854864E+00  7.858216014E+00  2.179851955E-07  0.00000E+00  9.000E+00
      21     1     4     4   507   513 -5.782912063E-01  1.382947582E+00 -1.235265731E+00  1.942381569E+00  1.490116119E-08  0.00000E+00  9.000E+00
#rwgt            1          17  -16.605997103621547                1     7482545           0       11110           0
<weights>
-.12620E+02
</weights>
</event>
<event>
     15  10001 -1.35503E+01  2.03990E+01 -1.00000E+00  3.26350E-01
      21    -1     0     0   512   501  0.000000000E+00  0.000000000E+00  3.374838466E+02  3.374838466E+02  0.000000000E+00  0.00000E+00  9.000E+00
      21    -1     0     0   507   502  0.000000000E+00  0.000000000E+00 -1.024391842E+03  1.024391842E+03  0.000000000E+00  0.00000E+00  9.000E+00
      -6     2     1     2     0   501  1.252687255E+02 -1.906848311E+02  1.989141026E+02  3.483835530E+02  1.724857136E+02  0.00000E+00  9.000E+00
       6     2     1     2   507     0 -1.197859293E+02  1.710364295E+02 -2.245781483E+02  3.519336107E+02  1.726840830E+02  0.00000E+00  9.000E+00
     -24     2     3     3     0     0  8.015850724E+01 -2.021153218E+02  1.862926748E+02  2.980552869E+02  8.280098909E+01  0.00000E+00  9.000E+00
      24     2     4     4     0     0 -1.450652152E+02  1.265472756E+02 -2.123512110E+02  2.981365308E+02  8.206232147E+01  0.00000E+00  9.000E+00
     -11     1     6     6     0     0 -6.613706954E+01  6.038209489E+01 -1.581664626E+02  1.817601146E+02  0.000000000E+00  0.00000E+00  9.000E+00
      12     1     6     6     0     0 -7.892814564E+01  6.616518067E+01 -5.418474835E+01  1.163764163E+02  4.768371582E-06  0.00000E+00  9.000E+00
      13     1     5     5     0     0  9.311617983E+01 -1.403523535E+02  1.481500203E+02  2.243163717E+02  0.000000000E+00  0.00000E+00  9.000E+00
     -14     1     5     5     0     0 -1.295767259E+01 -6.176296831E+01  3.814265446E+01  7.373891526E+01  1.846782373E-06  0.00000E+00  9.000E+00
       5     1     4     4   511     0  2.509804693E+01  4.011567765E+01 -1.310997552E+01  4.933166844E+01  4.750000000E+00  0.00000E+00  9.000E+00
      -5     1     3     3     0   514  4.161520678E+01  1.420644652E+01  1.096954187E+01  4.556908938E+01  4.750000000E+00  0.00000E+00  9.000E+00
      21     1     1     2   512   502 -5.482796181E+00  1.964840156E+01 -6.612439500E+02  6.615585251E+02  2.530383904E-05  0.00000E+00  9.000E+00
      21     1     4     4   507   511  1.812389134E-01  4.373476340E+00  8.830381325E-01  4.465411424E+00  1.385888102E-07  0.00000E+00  9.000E+00
      21     1     3     3   514   501  3.495011499E+00 -2.775955817E+00  1.651885949E+00  4.759176742E+00  4.712160915E-08  0.00000E+00  9.000E+00
#rwgt            1          17  -18.132013149432655                1     7500625           0       11011           0
<weights>
-.11991E+02
</weights>
</event>
<event>
     15  10001  1.35503E+01  6.22851E+00 -1.00000E+00  3.25311E-01
      21    -1     0     0   502   511  0.000000000E+00  0.000000000E+00  2.120115945E+03  2.120115945E+03  0.000000000E+00  0.00000E+00  9.000E+00
      21    -1     0     0   507   502  0.000000000E+00  0.000000000E+00 -2.239301817E+01  2.239301817E+01  0.000000000E+00  0.00000E+00  9.000E+00
      -6     2     1     2     0   501 -1.440240336E+01  6.087395998E+01  1.564099485E+03  1.574791505E+03  1.721859928E+02  0.00000E+00  9.000E+00
       6     2     1     2   507     0  2.061369787E+01 -6.041116735E+01  4.836473580E+02  5.173547409E+02  1.722403188E+02  0.00000E+00  9.000E+00
     -24     2     3     3     0     0  2.390880114E+01  6.271701660E+01  1.457539992E+03  1.461292445E+03  8.029772207E+01  0.00000E+00  9.000E+00
      24     2     4     4     0     0 -3.639502106E+01 -4.112627571E+01  1.538254147E+02  1.819352983E+02  8.013879495E+01  0.00000E+00  9.000E+00
     -11     1     6     6     0     0 -5.983109867E+01 -2.217023047E+01  1.244101492E+02  1.398183275E+02  0.000000000E+00  0.00000E+00  9.000E+00
      12     1     6     6     0     0  2.343607761E+01 -1.895604524E+01  2.941526551E+01  4.211697080E+01  2.158972058E-06  0.00000E+00  9.000E+00
      13     1     5     5     0     0 -2.588325854E+01  4.058526813E+01  8.283387948E+02  8.297362629E+02  0.000000000E+00  0.00000E+00  9.000E+00
     -14     1     5     5     0     0  4.979205968E+01  2.213174847E+01  6.292011976E+02  6.315561816E+02  1.525878906E-05  0.00000E+00  9.000E+00
       5     1     4     4   513     0  5.614749080E+01 -1.876369343E+01  3.141083865E+02  3.196736741E+02  4.750000000E+00  0.00000E+00  9.000E+00
      -5     1     3     3     0   512 -3.222508736E+01  1.761250608E-01  8.597048882E+01  9.193462201E+01  4.750000000E+00  0.00000E+00  9.000E+00
      21     1     1     2   501   511 -6.211294505E+00 -4.627926315E-01  4.997608340E+01  5.036271705E+01  0.000000000E+00  0.00000E+00  9.000E+00
      21     1     3     3   512   501 -6.086117144E+00 -2.019181682E+00  2.058900426E+01  2.156443862E+01  6.307962682E-07  0.00000E+00  9.000E+00
      21     1     4     4   507   513  8.612281313E-01 -5.211982103E-01  1.571355672E+01  1.574576852E+01  1.685873940E-07  0.00000E+00  9.000E+00
#rwgt            1          17   39.267816356847590                1     7507695           0       11110           0
<weights>
0.15670E+02
</weights>
</event>
<event>
     15  10001  1.35503E+01  3.95485E+01 -1.00000E+00  2.34240E-01
       2    -1     0     0   502     0  0.000000000E+00  0.000000000E+00  1.098336611E+03  1.098336611E+03  0.000000000E+00  0.00000E+00  9.000E+00
      21    -1     0     0   507   502  0.000000000E+00  0.000000000E+00 -1.870956240E+02  1.870956240E+02  0.000000000E+00  0.00000E+00  9.000E+00
      -6     2     1     2     0   501  2.088989927E+01 -2.857632717E+00  1.050360257E+02  3.871740797E+02  3.720573173E+02  0.00000E+00  9.000E+00
       6     2     1     2   507     0  7.091169674E+00 -2.509125169E+01  1.246789741E+02  2.155856484E+02  1.739323708E+02  0.00000E+00  9.000E+00
     -24     2     3     3     0     0  1.836239590E+02 -2.334572414E+01  7.877347884E+01  2.175194715E+02  8.274465752E+01  0.00000E+00  9.000E+00
      24     2     4     4     0     0  1.194387471E+01 -6.651693237E+01  2.639627027E+01  1.086232567E+02  8.083990579E+01  0.00000E+00  9.000E+00
     -11     1     6     6     0     0 -1.055716101E+01 -3.063797788E+01  5.041784687E+01  5.993411900E+01  0.000000000E+00  0.00000E+00  9.000E+00
      12     1     6     6     0     0  2.250103573E+01 -3.587895449E+01 -2.402157660E+01  4.868913766E+01  1.784161275E-06  0.00000E+00  9.000E+00
      13     1     5     5     0     0  6.766300528E+00 -2.068184226E+01  2.390709113E+01  3.232754906E+01  0.000000000E+00  0.00000E+00  9.000E+00
     -14     1     5     5     0     0  1.768576585E+02 -2.663881884E+00  5.486638771E+01  1.851919224E+02  2.611744678E-06  0.00000E+00  9.000E+00
       5     1     4     4   512     0 -5.232247881E+00  3.936980464E+01  9.490971408E+01  1.029940496E+02  4.750000000E+00  0.00000E+00  9.000E+00
      -5     1     3     3     0   511 -1.623295850E+02  1.668241344E+01  2.350401677E+01  1.649369528E+02  4.750000000E+00  0.00000E+00  9.000E+00
       2     1     1     2   501     0 -2.798106894E+01  2.794888441E+01  6.815259868E+02  6.826725065E+02  0.000000000E+00  0.00000E+00  9.000E+00
      21     1     3     3   511   501 -4.044747299E-01  3.805677983E+00  2.758530088E+00  4.717655452E+00  1.032382731E-07  0.00000E+00  9.000E+00
      21     1     4     4   507   512  3.795428414E-01  2.055876036E+00  3.372989727E+00  3.968342065E+00  9.424321831E-08  0.00000E+00  9.000E+00
#rwgt            1          17   6.1957991355511748                1     7518350           0       11110           0
<weights>
0.12520E+02
</weights>
</event>
<event>
     15  10001  1.35503E+01  3.72642E+01 -1.00000E+00  3.37111E-01
      21    -1     0     0   507   511  0.000000000E+00  0.000000000E+00  6.160045049E+02  6.160045049E+02  0.000000000E+00  0.00000E+00  9.000E+00
      21    -1     0     0   501   502  0.000000000E+00  0.000000000E+00 -8.571369290E+01  8.571369290E+01  0.000000000E+00  0.00000E+00  9.000E+00
      -6     2     1     2     0   502  1.120150343E+02  7.252606911E+00  2.709604648E+02  3.403901783E+02  1.727597516E+02  0.00000E+00  9.000E+00
       6     2     1     2   507     0 -9.863935098E+01 -4.203353850E+01  2.508671394E+02  3.231148282E+02  1.731251877E+02  0.00000E+00  9.000E+00
     -24     2     3     3     0     0  1.440134558E+02  2.318063727E+01  2.447813186E+02  2.946361940E+02  7.493580924E+01  0.00000E+00  9.000E+00
      24     2     4     4     0     0 -1.062065941E+01  4.160662839E+00  1.865292811E+02  2.033280776E+02  8.011881735E+01  0.00000E+00  9.000E+00
     -11     1     6     6     0     0 -3.565122552E+01 -1.932431836E+01  6.144517003E+01  7.362029666E+01  0.000000000E+00  0.00000E+00  9.000E+00
      12     1     6     6     0     0  2.503056611E+01  2.348498119E+01  1.250841111E+02  1.297077809E+02  1.907348633E-06  0.00000E+00  9.000E+00
      13     1     5     5     0     0  2.712083618E+01  1.877522317E+01  1.162733338E+02  1.208616437E+02  0.000000000E+00  0.00000E+00  9.000E+00
     -14     1     5     5     0     0  1.168926196E+02  4.405414104E+00  1.285079848E+02  1.737745504E+02  3.303624740E-06  0.00000E+00  9.000E+00
       5     1     4     4   512     0 -8.046549050E+01 -4.646704970E+01  5.627410283E+01  1.087346266E+02  4.750000000E+00  0.00000E+00  9.000E+00
      -5     1     3     3     0   513 -3.048779623E+01 -1.720953421E+01  2.354089006E+01  4.245479703E+01  4.750000000E+00  0.00000E+00  9.000E+00
      21     1     1     2   501   511 -1.337568332E+01  3.478093159E+01  8.463207752E+00  3.821319134E+01  9.973764736E-07  0.00000E+00  9.000E+00
      21     1     4     4   507   512 -7.553201069E+00  2.728483613E-01  8.063755511E+00  1.105212403E+01  1.192092896E-07  0.00000E+00  9.000E+00
      21     1     3     3   513   502 -1.510625272E+00  1.281503846E+00  2.638256129E+00  3.299187206E+00  9.884312124E-08  0.00000E+00  9.000E+00
#rwgt            1          17   40.373437482028315                1     7529817           0       11011           0
<weights>
0.13276E+02
</weights>
</event>
<event>
     15  10001 -1.35503E+01  6.57289E+01 -1.00000E+00  2.62500E-01
      21    -1     0     0   502   512  0.000000000E+00  0.000000000E+00  1.445835377E+03  1.445835377E+03  0.000000000E+00  0.00000E+00  9.000E+00
      21    -1     0     0   507   502  0.000000000E+00  0.000000000E+00 -2.634528728E+02  2.634528728E+02  0.000000000E+00  0.00000E+00  9.000E+00
      -6     2     1     2     0   501 -9.502758909E+00 -7.666600970E+01  1.352134008E+03  1.365232538E+03  1.721206752E+02  0.00000E+00  9.000E+00
       6     2     1     2   507     0  5.756871471E+01  1.214984925E+02 -1.705853417E+02  2.783215284E+02  1.740329675E+02  0.00000E+00  9.000E+00
     -24     2     3     3     0     0 -8.105738167E-01 -9.621575856E+01  1.296369806E+03  1.302424468E+03  8.047788991E+01  0.00000E+00  9.000E+00
      24     2     4     4     0     0  1.216402699E+01  1.200843650E+02 -6.148338673E+01  1.578788991E+02  8.110068833E+01  0.00000E+00  9.000E+00
     -11     1     6     6     0     0  3.678420011E+01  1.124021371E+02 -5.841030617E+01  1.319055786E+02  0.000000000E+00  0.00000E+00  9.000E+00
      12     1     6     6     0     0 -2.462017312E+01  7.682227909E+00 -3.073080563E+00  2.597332043E+01  1.072055444E-06  0.00000E+00  9.000E+00
      13     1     5     5     0     0 -1.730869080E+01 -2.941504977E+01  8.587797305E+02  8.594576554E+02  0.000000000E+00  0.00000E+00  9.000E+00
     -14     1     5     5     0     0  1.649811699E+01 -6.680070879E+01  4.375900760E+02  4.429668127E+02  5.394796609E-06  0.00000E+00  9.000E+00
       5     1     4     4   514     0  4.585044848E+01 -6.602904187E-01 -1.089657268E+02  1.183164896E+02  4.750000000E+00  0.00000E+00  9.000E+00
      -5     1     3     3     0   511 -5.529014210E+00  2.070495377E+01  3.199116681E+01  3.879771079E+01  4.750000000E+00  0.00000E+00  9.000E+00
      21     1     1     2   501   512 -4.806595580E+01 -4.483248276E+01  8.338377857E-01  6.573418367E+01  2.019615897E-06  0.00000E+00  9.000E+00
      21     1     3     3   511   501 -3.163170883E+00 -1.155204902E+00  2.377303504E+01  2.401035908E+01  3.371747881E-07  0.00000E+00  9.000E+00
      21     1     4     4   507   514 -4.457607644E-01  2.074417842E+00 -1.362282452E-01  2.126139736E+00  4.489708987E-08  0.00000E+00  9.000E+00
#rwgt            1          17  -686.09145039710575                1     7536784           0       11110           0
<weights>
-.15413E+02
</weights>
</event>
<event>
     15  10001  1.35503E+01  3.88425E+01 -1.00000E+00  2.85500E-01
      21    -1     0     0   511   501  0.000000000E+00  0.000000000E+00  6.661448011E+01  6.661448011E+01  0.000000000E+00  0.00000E+00  9.000E+00
      21    -1     0     0   501   502  0.000000000E+00  0.000000000E+00 -2.604823339E+03  2.604823339E+03  0.000000000E+00  0.00000E+00  9.000E+00
      -6     2     1     2     0   502 -1.939852164E+02 -2.076530924E+02 -1.854737771E+03  1.884254842E+03  1.720872947E+02  0.00000E+00  9.000E+00
       6     2     1     2   507     0  2.292544002E+02  1.913796033E+02 -5.578226724E+02  6.556677084E+02  1.719019412E+02  0.00000E+00  9.000E+00
     -24     2     3     3     0     0 -1.247759130E+02 -1.236853742E+02 -1.491628446E+03  1.504876972E+03  9.397967683E+01  0.00000E+00  9.000E+00
      24     2     4     4     0     0  7.435300115E+01  7.580608672E+01 -3.364936897E+02  3.617749961E+02  7.986371530E+01  0.00000E+00  9.000E+00
     -11     1     6     6     0     0  1.073907580E+01 -1.167237300E+01 -1.058124092E+02  1.069945698E+02  0.000000000E+00  0.00000E+00  9.000E+00
      12     1     6     6     0     0  6.361392536E+01  8.747845972E+01 -2.306812806E+02  2.547804263E+02  3.814697266E-06  0.00000E+00  9.000E+00
      13     1     5     5     0     0 -8.694679606E+01 -7.336078141E+01 -5.784139590E+02  5.894949173E+02  0.000000000E+00  0.00000E+00  9.000E+00
     -14     1     5     5     0     0 -3.782911694E+01 -5.032459277E+01 -9.132144867E+02  9.153820544E+02  1.525878906E-05  0.00000E+00  9.000E+00
       5     1     4     4   513     0  1.343807792E+02  1.008555765E+02 -1.937395887E+02  2.564909976E+02  4.750000000E+00  0.00000E+00  9.000E+00
      -5     1     3     3     0   512 -6.541025376E+01 -8.329336394E+01 -3.485280590E+02  3.642947380E+02  4.750000000E+00  0.00000E+00  9.000E+00
      21     1     1     2   511   507 -3.526918379E+01  1.627348902E+01 -1.256484154E+02  1.315152693E+02  1.907348633E-06  0.00000E+00  9.000E+00
      21     1     3     3   512   502 -3.799049617E+00 -6.743542505E-01 -1.458126679E+01  1.508313206E+01  1.685873940E-07  0.00000E+00  9.000E+00
      21     1     4     4   507   513  2.052061981E+01  1.471794013E+01 -2.758939407E+01  3.740171472E+01  4.768371582E-07  0.00000E+00  9.000E+00
#rwgt            1          17   153.23082669955650                1     7547616           0       11110           0
<weights>
0.22021E+02
</weights>
</event>
<event>
     15  10001  1.35503E+01  7.94677E+00 -1.00000E+00  3.44584E-01
      21    -1     0     0   512   501  0.000000000E+00  0.000000000E+00  7.367317629E+02  7.367317629E+02  0.000000000E+00  0.00000E+00  9.000E+00
      21    -1     0     0   507   502  0.000000000E+00  0.000000000E+00 -6.855574070E+01  6.855574070E+01  0.000000000E+00  0.00000E+00  9.000E+00
      -6     2     1     2     0   501 -5.902354524E+01 -4.668159192E+01  2.650553557E+02  3.257475418E+02  1.737646959E+02  0.00000E+00  9.000E+00
       6     2     1     2   507     0  6.005787161E+01  5.456076493E+01  2.025096954E+02  2.787716551E+02  1.735500906E+02  0.00000E+00  9.000E+00
     -24     2     3     3     0     0 -1.059786250E+02 -4.527130609E+01  2.029418279E+02  2.469860776E+02  8.084415190E+01  0.00000E+00  9.000E+00
      24     2     4     4     0     0  9.243475560E+01  5.823477487E+01  9.244867999E+01  1.638333510E+02  7.974418739E+01  0.00000E+00  9.000E+00
     -11     1     6     6     0     0  5.020795625E+01  6.256845577E+01  9.106672705E+01  1.213622647E+02  0.000000000E+00  0.00000E+00  9.000E+00
      12     1     6     6     0     0  4.222679936E+01 -4.333680906E+00  1.381952938E+00  4.247108626E+01  2.376863665E-06  0.00000E+00  9.000E+00
      13     1     5     5     0     0 -9.194437159E+01 -4.288138588E+00  1.034379748E+02  1.384614395E+02  0.000000000E+00  0.00000E+00  9.000E+00
     -14     1     5     5     0     0 -1.403425342E+01 -4.098316750E+01  9.950385312E+01  1.085246381E+02  1.348699152E-06  0.00000E+00  9.000E+00
       5     1     4     4   511     0 -2.102507981E+01 -2.402520916E+00  7.375212139E+01  7.687498942E+01  4.750000000E+00  0.00000E+00  9.000E+00
      -5     1     3     3     0   514  4.616400083E+01 -3.034487430E+00  5.861316414E+01  7.482238032E+01  4.750000000E+00  0.00000E+00  9.000E+00
      21     1     1     2   512   502 -1.034326377E+00 -7.879173011E+00  2.006109712E+02  2.007683067E+02  3.814697266E-06  0.00000E+00  9.000E+00
      21     1     4     4   507   511 -1.135180418E+01 -1.271489019E+00  3.630889401E+01  3.806331471E+01  6.743495762E-07  0.00000E+00  9.000E+00
      21     1     3     3   514   501  7.910789451E-01  1.624201603E+00  3.500363647E+00  3.939083955E+00  4.214684851E-08  0.00000E+00  9.000E+00
#rwgt            1          17   16.879584327871850                1     7560173           0       11011           0
<weights>
0.13631E+02
</weights>
</event>
<event>
     14  10001  1.35503E+01  5.73045E+01 -1.00000E+00  1.97272E-01
      21    -1     0     0   502   501  0.000000000E+00  0.000000000E+00  6.339864089E+02  6.339864089E+02  0.000000000E+00  0.00000E+00  9.000E+00
      -1    -1     0     0     0   502  0.000000000E+00  0.000000000E+00 -1.958294376E+02  1.958294376E+02  0.000000000E+00  0.00000E+00  9.000E+00
      -6     2     1     2     0   501 -8.201776545E+00 -1.982375003E+01  4.198442955E+02  4.545241323E+02  1.728082874E+02  0.00000E+00  9.000E+00
       6     2     1     2   507     0  6.468154645E+01  2.951089006E+01  1.451989813E+02  2.360654969E+02  1.720162189E+02  0.00000E+00  9.000E+00
     -24     2     3     3     0     0  5.630783289E+01 -1.093738149E+01  1.852163140E+02  2.107030189E+02  8.246502807E+01  0.00000E+00  9.000E+00
      24     2     4     4     0     0  4.070875282E+01  6.504353772E+01  3.344088078E+01  1.162752660E+02  8.070799602E+01  0.00000E+00  9.000E+00
     -11     1     6     6     0     0  3.936685667E+01  6.552676463E+01  5.531350670E+01  9.435618851E+01  0.000000000E+00  0.00000E+00  9.000E+00
      12     1     6     6     0     0  1.341896149E+00 -4.832269067E-01 -2.187262592E+01  2.191907749E+01  4.129530925E-07  0.00000E+00  9.000E+00
      13     1     5     5     0     0  1.096736112E+01 -2.314974013E+01  7.215852948E+00  2.661319243E+01  0.000000000E+00  0.00000E+00  9.000E+00
     -14     1     5     5     0     0  4.534047177E+01  1.221235864E+01  1.780004610E+02  1.840898265E+02  4.264961200E-06  0.00000E+00  9.000E+00
       5     1     4     4   507     0  2.397279363E+01 -3.553264767E+01  1.117581005E+02  1.197902309E+02  4.750000000E+00  0.00000E+00  9.000E+00
      -5     1     3     3     0   512 -3.685893740E+01 -9.619422302E+00  1.470954122E+02  1.520221607E+02  4.750000000E+00  0.00000E+00  9.000E+00
      -1     1     1     2     0   507 -5.647976990E+01 -9.687140028E+00 -1.268863054E+02  1.392262174E+02  0.000000000E+00  0.00000E+00  9.000E+00
      21     1     3     3   512   501 -2.765067203E+01  7.330537627E-01  8.753256926E+01  9.179895267E+01  1.348699152E-06  0.00000E+00  9.000E+00
#rwgt            1          17   21.246060205325087                1     7567596           0         111           0
<weights>
0.14568E+02
</weights>
</event>
<event>
     15  10001 -1.35503E+01  4.53249E+01 -1.00000E+00  1.72623E-01
      21    -1     0     0   511   501  0.000000000E+00  0.000000000E+00  3.292112198E+02  3.292112198E+02  0.000000000E+00  0.00000E+00  9.000E+00
      21    -1     0     0   507   502  0.000000000E+00  0.000000000E+00 -1.693070139E+02  1.693070139E+02  0.000000000E+00  0.00000E+00  9.000E+00
      -6     2     1     2     0   501 -2.306239810E+01 -1.042309766E+01  7.093456269E+01  1.887965362E+02  1.731239577E+02  0.00000E+00  9.000E+00
       6     2     1     2   507     0  6.517337173E+01  2.718639638E+01 -2.559210015E+01  1.865196872E+02  1.707277645E+02  0.00000E+00  9.000E+00
     -24     2     3     3     0     0  2.949846247E+01 -5.445847556E+01  2.205516103E+01  1.034960328E+02  7.993193245E+01  0.00000E+00  9.000E+00
      24     2     4     4     0     0  9.601063212E+01  4.165675256E+01  1.468761107E+01  1.333485937E+02  8.131909380E+01  0.00000E+00  9.000E+00
     -11     1     6     6     0     0  1.887569127E+01  3.608331948E+01  3.465983397E+01  5.347524433E+01  0.000000000E+00  0.00000E+00  9.000E+00
      12     1     6     6     0     0  7.713494085E+01  5.573433084E+00 -1.997222291E+01  7.987334940E+01  1.685873940E-06  0.00000E+00  9.000E+00
      13     1     5     5     0     0  5.131542528E+01 -1.391131945E+01  2.176770646E+01  5.745111596E+01  0.000000000E+00  0.00000E+00  9.000E+00
     -14     1     5     5     0     0 -2.181696281E+01 -4.054715611E+01  2.874545648E-01  4.604491682E+01  7.027481462E-07  0.00000E+00  9.000E+00
       5     1     4     4   512     0 -2.920387395E+01 -1.385340960E+01 -3.949671462E+01  5.125754751E+01  4.750000000E+00  0.00000E+00  9.000E+00
      -5     1     3     3     0   513 -1.841652387E+01  1.766993125E+01  1.223874995E+01  2.870094637E+01  4.750000000E+00  0.00000E+00  9.000E+00
      21     1     1     2   511   502 -4.211097363E+01 -1.676329871E+01  1.145617434E+02  1.232020102E+02  0.000000000E+00  0.00000E+00  9.000E+00
      21     1     3     3   513   501 -3.414433669E+01  2.636544665E+01  3.664065171E+01  5.659955709E+01  8.259061849E-07  0.00000E+00  9.000E+00
      21     1     4     4   507   512 -1.633386437E+00 -6.169465813E-01 -7.829966045E-01  1.913545928E+00  4.214684851E-08  0.00000E+00  9.000E+00
#rwgt            1          17  -14.113761357928389                1     7579484           0       11110           0
<weights>
-.25254E+02
</weights>
</event>
<event>
     14  10001  1.35503E+01  9.28393E+01 -1.00000E+00  7.46726E-01
      21    -1     0     0   512   501  0.000000000E+00  0.000000000E+00  1.031158265E+03  1.031158265E+03  0.000000000E+00  0.00000E+00  9.000E+00
      21    -1     0     0   501   502  0.000000000E+00  0.000000000E+00 -3.466907596E+02  3.466907596E+02  0.000000000E+00  0.00000E+00  9.000E+00
      -6     2     1     2     0   502 -2.919560065E+02  1.155518101E+02  1.841501238E+02  4.027151369E+02  1.722721186E+02  0.00000E+00  9.000E+00
       6     2     1     2   507     0  2.043300945E+02 -8.487882484E+01  7.006473181E+02  7.543371124E+02  1.707706427E+02  0.00000E+00  9.000E+00
     -24     2     3     3     0     0 -3.100373085E+02  1.062533841E+02  1.707028864E+02  3.778799824E+02  7.899931263E+01  0.00000E+00  9.000E+00
      24     2     4     4     0     0  1.478345043E+02 -7.763627009E+01  3.126502392E+02  3.620928951E+02  7.401798078E+01  0.00000E+00  9.000E+00
     -11     1     6     6     0     0  1.302039520E+02 -4.431099961E+01  2.810530753E+02  3.129015260E+02  0.000000000E+00  0.00000E+00  9.000E+00
      12     1     6     6     0     0  1.763055231E+01 -3.332527048E+01  3.159716386E+01  4.919136908E+01  2.261837239E-06  0.00000E+00  9.000E+00
      13     1     5     5     0     0 -2.351028092E+02  9.693575024E+01  9.645586323E+01  2.719808892E+02  0.000000000E+00  0.00000E+00  9.000E+00
     -14     1     5     5     0     0 -7.493449928E+01  9.317633863E+00  7.424702313E+01  1.058990931E+02  1.907348633E-06  0.00000E+00  9.000E+00
       5     1     4     4   511     0  5.657503758E+01 -7.104122537E+00  3.835460732E+02  3.877903508E+02  4.750000000E+00  0.00000E+00  9.000E+00
      -5     1     3     3     0   502  1.808130195E+01  9.298426035E+00  1.344723745E+01  2.483515456E+01  4.750000000E+00  0.00000E+00  9.000E+00
      21     1     1     2   512   507  8.762591200E+01 -3.067298530E+01 -2.003299365E+02  2.207967752E+02  3.814697266E-06  0.00000E+00  9.000E+00
      21     1     4     4   507   511 -7.944739554E-02 -1.384322120E-01  4.451005669E+00  4.453866503E+00  5.960464478E-08  0.00000E+00  9.000E+00
#rwgt            1          17   9.6952906213214494                1     7594364           0         110           0
<weights>
0.33703E+01
</weights>
</event>
<event>
     13  10001  1.35503E+01  1.64822E+02 -1.00000E+00  1.14794E-01
      21    -1     0     0   511   501  0.000000000E+00  0.000000000E+00  8.122636634E+02  8.122636634E+02  0.000000000E+00  0.00000E+00  9.000E+00
      21    -1     0     0   501   502  0.000000000E+00  0.000000000E+00 -1.413461586E+02  1.413461586E+02  0.000000000E+00  0.00000E+00  9.000E+00
      -6     2     1     2     0   502 -8.413280602E+01 -1.325681093E+02  1.981837977E+02  3.056874486E+02  1.718003664E+02  0.00000E+00  9.000E+00
       6     2     1     2   507     0 -2.053169164E+01  5.243122054E+00  3.173418740E+01  1.771284846E+02  1.729693635E+02  0.00000E+00  9.000E+00
     -24     2     3     3     0     0  1.943983340E+01 -5.293311691E+01  1.125811556E+02  1.494203743E+02  8.044942319E+01  0.00000E+00  9.000E+00
      24     2     4     4     0     0  3.700217877E+01  4.886818063E+01  2.501720361E+01  1.044581856E+02  8.079846378E+01  0.00000E+00  9.000E+00
     -11     1     6     6     0     0  4.474347931E+01  6.482808076E+01  3.249382658E+01  8.520861319E+01  0.000000000E+00  0.00000E+00  9.000E+00
      12     1     6     6     0     0 -7.741300544E+00 -1.595990013E+01 -7.476622973E+00  1.924957240E+01  7.952251473E-07  0.00000E+00  9.000E+00
      13     1     5     5     0     0  9.440938478E+00 -7.386877671E+01  7.861671898E+01  1.082881157E+02  0.000000000E+00  0.00000E+00  9.000E+00
     -14     1     5     5     0     0  9.998894925E+00  2.093565980E+01  3.396443659E+01  4.113225867E+01  1.168007728E-06  0.00000E+00  9.000E+00
       5     1     4     4   507     0 -5.753387041E+01 -4.362505857E+01  6.716983792E+00  7.267029896E+01  4.750000000E+00  0.00000E+00  9.000E+00
      -5     1     3     3     0   502 -1.035726394E+02 -7.963499243E+01  8.560264211E+01  1.562670742E+02  4.750000000E+00  0.00000E+00  9.000E+00
      21     1     1     2   511   507  1.046644977E+02  1.273249873E+02  4.409995197E+02  4.707938889E+02  5.394796609E-06  0.00000E+00  9.000E+00
#rwgt            2         113  0.16227969242339654                1     7606705           0           1           0
<weights>
0.13550E+02
</weights>
</event>
<event>
     15  10001  1.35503E+01  4.16258E+01 -1.00000E+00  2.27308E-01
      21    -1     0     0   502   513  0.000000000E+00  0.000000000E+00  7.755796469E+01  7.755796469E+01  0.000000000E+00  0.00000E+00  9.000E+00
      21    -1     0     0   507   502  0.000000000E+00  0.000000000E+00 -1.091761630E+03  1.091761630E+03  0.000000000E+00  0.00000E+00  9.000E+00
      -6     2     1     2     0   501 -4.840589499E+01  8.491958344E+00 -6.848266220E+01  1.906459044E+02  1.709992451E+02  0.00000E+00  9.000E+00
       6     2     1     2   507     0  8.247162908E+01  1.542948596E+01 -5.873482923E+02  6.178916098E+02  1.725467657E+02  0.00000E+00  9.000E+00
     -24     2     3     3     0     0 -9.441464101E+01 -2.264719835E+00 -2.988690933E+01  1.274088642E+02  8.012825933E+01  0.00000E+00  9.000E+00
      24     2     4     4     0     0  5.532635948E+01 -4.567434258E+01 -3.160791393E+02  3.340926678E+02  8.102306314E+01  0.00000E+00  9.000E+00
     -11     1     6     6     0     0  6.901343279E+01 -4.137223640E+01 -1.788661498E+02  1.961316278E+02  0.000000000E+00  0.00000E+00  9.000E+00
      12     1     6     6     0     0 -1.368707331E+01 -4.302106178E+00 -1.372129895E+02  1.379610401E+02  0.000000000E+00  0.00000E+00  9.000E+00
      13     1     5     5     0     0 -1.042227647E+02  9.296843851E-01 -9.622525668E+00  1.046701581E+02  0.000000000E+00  0.00000E+00  9.000E+00
     -14     1     5     5     0     0  9.808123739E+00 -3.194404221E+00 -2.026438366E+01  2.273870609E+01  6.307962682E-07  0.00000E+00  9.000E+00
       5     1     4     4   512     0 -6.700044447E+00  3.406054962E+01 -1.712985459E+02  1.748449769E+02  4.750000000E+00  0.00000E+00  9.000E+00
      -5     1     3     3     0   511  4.052798329E+01  1.149479033E+01 -3.911583839E+01  5.768239721E+01  4.750000000E+00  0.00000E+00  9.000E+00
      21     1     4     4   507   512  3.384531404E+01  2.704327892E+01 -9.997060715E+01  1.089539651E+02  1.348699152E-06  0.00000E+00  9.000E+00
      21     1     1     2   501   513 -3.406573409E+01 -2.392144430E+01 -3.583727112E+02  3.607820809E+02  5.394796609E-06  0.00000E+00  9.000E+00
      21     1     3     3   511   501  5.480762728E+00 -7.381121535E-01  5.200855211E-01  5.554642975E+00  1.069359488E-07  0.00000E+00  9.000E+00
#rwgt            1          17  0.70256091642106200                1     7607720           0      100111           0
<weights>
0.17847E+02
</weights>
</event>
<event>
     14  10001  1.35503E+01  4.35758E+01 -1.00000E+00  7.52493E-01
      21    -1     0     0   511   501  0.000000000E+00  0.000000000E+00  2.713142011E+02  2.713142011E+02  0.000000000E+00  0.00000E+00  9.000E+00
      21    -1     0     0   501   502  0.000000000E+00  0.000000000E+00 -6.962788264E+02  6.962788264E+02  0.000000000E+00  0.00000E+00  9.000E+00
      -6     2     1     2     0   502 -1.478455937E+02  9.416619363E+01 -5.260689292E+02  5.807530197E+02  1.726266492E+02  0.00000E+00  9.000E+00
       6     2     1     2   507     0  1.542970835E+02 -1.372617381E+02 -8.437934973E+00  2.689487453E+02  1.720867634E+02  0.00000E+00  9.000E+00
     -24     2     3     3     0     0 -1.396510844E+02  8.444406205E+01 -5.346205944E+02  5.647104730E+02  8.028395508E+01  0.00000E+00  9.000E+00
      24     2     4     4     0     0  2.432342687E+01 -1.040349947E+02 -3.851224818E-01  1.342394240E+02  8.127216880E+01  0.00000E+00  9.000E+00
     -11     1     6     6     0     0  1.416507337E+01 -9.288221827E+01  3.139331227E+01  9.906208069E+01  0.000000000E+00  0.00000E+00  9.000E+00
      12     1     6     6     0     0  1.015835349E+01 -1.115277643E+01 -3.177843475E+01  3.517734332E+01  8.259061849E-07  0.00000E+00  9.000E+00
      13     1     5     5     0     0 -1.559118489E+00  2.946858951E+01 -1.388309110E+02  1.419325561E+02  0.000000000E+00  0.00000E+00  9.000E+00
     -14     1     5     5     0     0 -1.380919659E+02  5.497547253E+01 -3.957896834E+02  4.227779170E+02  9.344061824E-06  0.00000E+00  9.000E+00
       5     1     4     4   512     0  1.271909450E+02 -3.299087458E+01 -8.912124924E+00  1.317874150E+02  4.750000000E+00  0.00000E+00  9.000E+00
      -5     1     3     3     0   502 -8.194509309E+00  9.722131585E+00  8.551665179E+00  1.604254664E+01  4.750000000E+00  0.00000E+00  9.000E+00
      21     1     1     2   511   507 -6.451489874E+00  4.309554450E+01  1.095422389E+02  1.178912625E+02  3.015782986E-06  0.00000E+00  9.000E+00
      21     1     4     4   507   512  2.782711700E+00 -2.358688485E-01  8.593124325E-01  2.921906292E+00  2.356080458E-08  0.00000E+00  9.000E+00
#rwgt            1          17   13.071698931355611                1     7611483           0         110           0
<weights>
0.27179E+02
</weights>
</event>
<event>
     15  10001 -1.35503E+01  4.01366E+01 -1.00000E+00  2.50418E-01
      21    -1     0     0   507   512  0.000000000E+00  0.000000000E+00  2.895674956E+02  2.895674956E+02  0.000000000E+00  0.00000E+00  9.000E+00
      21    -1     0     0   501   502  0.000000000E+00  0.000000000E+00 -2.712493177E+02  2.712493177E+02  0.000000000E+00  0.00000E+00  9.000E+00
      -6     2     1     2     0   502  1.363605788E+02 -2.814425744E+01 -1.716011700E+01  2.214172648E+02  1.713033242E+02  0.00000E+00  9.000E+00
       6     2     1     2   507     0 -1.088861810E+02 -1.115003254E+00  1.262440619E+02  2.401555495E+02  1.728574012E+02  0.00000E+00  9.000E+00
     -24     2     3     3     0     0  4.761861938E+01 -7.320057681E+01 -2.399702618E+00  1.192436346E+02  8.116297466E+01  0.00000E+00  9.000E+00
      24     2     4     4     0     0 -8.453239899E+00 -3.807606996E+01  5.753514302E+01  1.127298179E+02  8.874950583E+01  0.00000E+00  9.000E+00
     -11     1     6     6     0     0  3.785749348E+01 -3.577114779E+00  3.152430588E+01  4.939400190E+01  0.000000000E+00  0.00000E+00  9.000E+00
      12     1     6     6     0     0 -4.631073338E+01 -3.449895518E+01  2.601083715E+01  6.333581596E+01  1.507891493E-06  0.00000E+00  9.000E+00
      13     1     5     5     0     0  7.243045041E+00  5.611147629E+00 -2.602785665E+01  2.759340503E+01  0.000000000E+00  0.00000E+00  9.000E+00
     -14     1     5     5     0     0  4.037557434E+01 -7.881172444E+01  2.362815403E+01  9.165022954E+01  3.873843386E-06  0.00000E+00  9.000E+00
       5     1     4     4   513     0 -9.634675436E+01  3.637380624E+01  6.703224037E+01  1.229700557E+02  4.750000000E+00  0.00000E+00  9.000E+00
      -5     1     3     3     0   511  8.132712147E+01  4.523607137E+01 -1.091642846E+01  9.381968743E+01  4.750000000E+00  0.00000E+00  9.000E+00
      21     1     1     2   501   512 -2.747439784E+01  2.925926070E+01 -9.076576700E+01  9.924399897E+01  1.348699152E-06  0.00000E+00  9.000E+00
      21     1     3     3   511   502  7.414837990E+00 -1.797520035E-01 -3.843985926E+00  8.353942842E+00  2.827296549E-07  0.00000E+00  9.000E+00
      21     1     4     4   507   513 -4.086186746E+00  5.872604671E-01  1.676678471E+00  4.455675894E+00  1.010645923E-07  0.00000E+00  9.000E+00
#rwgt            1          17  -11.392922281023006                1     7623525           0       11110           0
<weights>
-.15514E+02
</weights>
</event>
<event>
     14  10001  1.35503E+01  6.31497E+01 -1.00000E+00  2.55658E-01
      21    -1     0     0   507   501  0.000000000E+00  0.000000000E+00  5.471837590E+02  5.471837590E+02  0.000000000E+00  0.00000E+00  9.000E+00
       4    -1     0     0   501     0  0.000000000E+00  0.000000000E+00 -3.380407527E+02  3.380407527E+02  0.000000000E+00  0.00000E+00  9.000E+00
      -6     2     1     2     0   502 -2.557530871E+01 -9.475793924E+01  2.311378661E+02  3.043409808E+02  1.719463753E+02  0.00000E+00  9.000E+00
       6     2     1     2   507     0  3.608890661E+01  3.248960710E+01  2.466915857E+02  3.048757649E+02  1.724369734E+02  0.00000E+00  9.000E+00
     -24     2     3     3     0     0  2.271913281E+01  4.766515042E+00  1.253669907E+02  1.509271402E+02  8.076658125E+01  0.00000E+00  9.000E+00
      24     2     4     4     0     0  4.415318352E+01 -5.916661088E+00  4.814017548E+01  1.024275023E+02  7.867277958E+01  0.00000E+00  9.000E+00
     -11     1     6     6     0     0  4.227731575E+00  1.228815126E+01  5.631290623E+01  5.779286966E+01  0.000000000E+00  0.00000E+00  9.000E+00
      12     1     6     6     0     0  3.992545195E+01 -1.820481235E+01 -8.172730754E+00  4.463463267E+01  1.227334755E-06  0.00000E+00  9.000E+00
      13     1     5     5     0     0 -1.204285236E+01 -2.299927903E+00  1.125406375E+02  1.132065150E+02  0.000000000E+00  0.00000E+00  9.000E+00
     -14     1     5     5     0     0  3.476198517E+01  7.066442945E+00  1.282635318E+01  3.772062519E+01  7.725644944E-07  0.00000E+00  9.000E+00
       5     1     4     4   507     0 -8.064276915E+00  3.840626819E+01  1.985514102E+02  2.024482625E+02  4.750000000E+00  0.00000E+00  9.000E+00
      -5     1     3     3     0   512 -3.727947975E+01 -8.459718414E+01  8.851362562E+01  1.280768035E+02  4.750000000E+00  0.00000E+00  9.000E+00
       4     1     1     2   502     0 -1.051359790E+01  6.226833214E+01 -2.686864455E+02  2.760077661E+02  0.000000000E+00  0.00000E+00  9.000E+00
      21     1     3     3   512   502 -1.101496177E+01 -1.492727013E+01  1.725724987E+01  2.533703711E+01  5.331201500E-07  0.00000E+00  9.000E+00
#rwgt            1          17   12.335656905030172                1     7631252           0         111           0
<weights>
0.11537E+02
</weights>
</event>
<event>
     15  10001  1.35503E+01  1.09853E+01 -1.00000E+00  5.85504E-01
      21    -1     0     0   511   501  0.000000000E+00  0.000000000E+00  9.471375371E+02  9.471375371E+02  0.000000000E+00  0.00000E+00  9.000E+00
      21    -1     0     0   501   502  0.000000000E+00  0.000000000E+00 -3.283427644E+02  3.283427644E+02  0.000000000E+00  0.00000E+00  9.000E+00
      -6     2     1     2     0   502  1.935120735E+01  6.586686141E+01 -1.693499223E+02  2.509579820E+02  1.720104645E+02  0.00000E+00  9.000E+00
       6     2     1     2   507     0 -2.171857164E+01 -5.513967449E+01 -5.482585549E+01  1.814801938E+02  1.625334004E+02  0.00000E+00  9.000E+00
     -24     2     3     3     0     0 -1.372707519E+01  1.374376947E+01 -1.699773489E+02  1.889489158E+02  8.020018590E+01  0.00000E+00  9.000E+00
      24     2     4     4     0     0 -5.762112830E+01 -3.791503694E+01 -7.678686763E+01  1.314599865E+02  8.141105916E+01  0.00000E+00  9.000E+00
     -11     1     6     6     0     0 -3.535383983E+00  2.731853932E+00 -6.205789957E+01  6.221852509E+01  0.000000000E+00  0.00000E+00  9.000E+00
      12     1     6     6     0     0 -5.408574431E+01 -4.064689087E+01 -1.472896807E+01  6.924146139E+01  1.752011592E-06  0.00000E+00  9.000E+00
      13     1     5     5     0     0  1.122042621E+01 -1.897766831E+01 -1.290278323E+02  1.308977897E+02  0.000000000E+00  0.00000E+00  9.000E+00
     -14     1     5     5     0     0 -2.494750140E+01  3.272143778E+01 -4.094951668E+01  5.805112602E+01  4.768371582E-07  0.00000E+00  9.000E+00
       5     1     4     4   513     0  3.487260234E+01 -1.876062090E+01  1.466480045E+01  4.249327197E+01  4.750000000E+00  0.00000E+00  9.000E+00
      -5     1     3     3     0   512  2.935827448E+01  4.778412665E+01  2.923359680E-01  5.628391423E+01  4.750000000E+00  0.00000E+00  9.000E+00
      21     1     1     2   511   507  2.367364291E+00 -1.072718692E+01  8.429705504E+02  8.430421258E+02  0.000000000E+00  0.00000E+00  9.000E+00
      21     1     4     4   507   513  1.029954310E+00  1.535983346E+00  7.296211691E+00  7.526935350E+00  2.665600750E-07  0.00000E+00  9.000E+00
      21     1     3     3   512   502  3.720008062E+00  4.338965282E+00  3.350907045E-01  5.725152005E+00  7.902534096E-08  0.00000E+00  9.000E+00
#rwgt            1          17   20.348468397411033                1     7640426           0       11011           0
<weights>
0.15778E+02
</weights>
</event>
<event>
     14  10001  1.35503E+01  9.80719E+01 -1.00000E+00  1.74817E-01
      21    -1     0     0   502   512  0.000000000E+00  0.000000000E+00  3.140307108E+02  3.140307108E+02  0.000000000E+00  0.00000E+00  9.000E+00
      21    -1     0     0   507   502  0.000000000E+00  0.000000000E+00 -5.887827496E+02  5.887827496E+02  0.000000000E+00  0.00000E+00  9.000E+00
      -6     2     1     2     0   501 -2.395340787E+02 -2.295863231E+02 -1.056881491E+02  3.877045997E+02  1.704652961E+02  0.00000E+00  9.000E+00
       6     2     1     2   507     0  1.579891031E+02  1.751022090E+02  2.923936607E+01  2.938798324E+02  1.728845716E+02  0.00000E+00  9.000E+00
     -24     2     3     3     0     0 -2.072910859E+02 -1.089750237E+02 -5.435069223E+01  2.514741471E+02  7.375702572E+01  0.00000E+00  9.000E+00
      24     2     4     4     0     0  8.731459788E+01  4.280239876E+01  6.130851639E+01  1.404226124E+02  8.064670825E+01  0.00000E+00  9.000E+00
     -11     1     6     6     0     0  6.791746775E+01  6.566432227E+01  3.569223489E+01  1.009877283E+02  0.000000000E+00  0.00000E+00  9.000E+00
      12     1     6     6     0     0  1.939713013E+01 -2.286192350E+01  2.561628150E+01  3.943488407E+01  8.920806376E-07  0.00000E+00  9.000E+00
      13     1     5     5     0     0 -1.756208604E+02 -1.160842105E+02 -3.422547506E+01  2.132829428E+02  0.000000000E+00  0.00000E+00  9.000E+00
     -14     1     5     5     0     0 -3.167022545E+01  7.109186869E+00 -2.012521717E+01  3.819120428E+01  8.920806376E-07  0.00000E+00  9.000E+00
       5     1     4     4   507     0  7.067450518E+01  1.322998102E+02 -3.206915033E+01  1.534572200E+02  4.750000000E+00  0.00000E+00  9.000E+00
      -5     1     3     3     0   511 -2.907304080E+01 -7.835356111E+01 -3.666137756E+01  9.138457936E+01  4.750000000E+00  0.00000E+00  9.000E+00
      21     1     1     2   501   512  8.154497559E+01  5.448411409E+01 -1.983032558E+02  2.212290284E+02  3.814697266E-06  0.00000E+00  9.000E+00
      21     1     3     3   511   501 -3.169951965E+00 -4.225773826E+01 -1.467607935E+01  4.484587320E+01  5.057621821E-07  0.00000E+00  9.000E+00
#rwgt            1          17   8.5622560462930100                1     7653069           0         111           0
<weights>
0.21112E+02
</weights>
</event>
<event>
     14  10001 -1.35503E+01  3.80081E+01 -1.00000E+00  3.95205E-01
      21    -1     0     0   507   501  0.000000000E+00  0.000000000E+00  5.705103935E+02  5.705103935E+02  0.000000000E+00  0.00000E+00  9.000E+00
       2    -1     0     0   501     0  0.000000000E+00  0.000000000E+00 -1.081998433E+03  1.081998433E+03  0.000000000E+00  0.00000E+00  9.000E+00
      -6     2     1     2     0   502  1.223401773E+02 -1.435455701E+02 -1.579384858E+02  3.004946455E+02  1.725688761E+02  0.00000E+00  9.000E+00
       6     2     1     2   507     0 -1.229499485E+02  1.815487731E+02  4.595851386E+02  5.379916733E+02  1.736084505E+02  0.00000E+00  9.000E+00
     -24     2     3     3     0     0  1.043517607E+01 -7.824178669E+01 -3.486813148E+01  1.215173483E+02  8.555705266E+01  0.00000E+00  9.000E+00
      24     2     4     4     0     0 -5.314557423E+01  3.734041151E+01  2.714981888E+02  2.908723390E+02  8.171103145E+01  0.00000E+00  9.000E+00
     -11     1     6     6     0     0 -3.991795408E+01 -1.789550703E+01  8.063152346E+01  9.173404387E+01  0.000000000E+00  0.00000E+00  9.000E+00
      12     1     6     6     0     0 -1.322762014E+01  5.523591855E+01  1.908666654E+02  1.991382951E+02  4.672030912E-06  0.00000E+00  9.000E+00
      13     1     5     5     0     0 -3.700606621E+00 -9.429062677E+01 -3.332629886E+01  1.000752666E+02  0.000000000E+00  0.00000E+00  9.000E+00
     -14     1     5     5     0     0  1.413578269E+01  1.604884008E+01 -1.541832626E+00  2.144208172E+01  4.851466595E-07  0.00000E+00  9.000E+00
       5     1     4     4   507     0 -6.980437432E+01  1.442083616E+02  1.880869498E+02  2.471193343E+02  4.750000000E+00  0.00000E+00  9.000E+00
      -5     1     3     3     0   512  1.083022609E+02 -6.121318753E+01 -1.176877708E+02  1.713166891E+02  4.750000000E+00  0.00000E+00  9.000E+00
       2     1     1     2   502     0  6.097712758E-01 -3.800320303E+01 -8.131346925E+02  8.140225080E+02  0.000000000E+00  0.00000E+00  9.000E+00
      21     1     3     3   512   502  3.602740257E+00 -4.090595844E+00 -5.382583465E+00  7.660608101E+00  8.429369702E-08  0.00000E+00  9.000E+00
#rwgt            1          17  -14.751167769242162                1     7664874           0         111           0
<weights>
-.15060E+02
</weights>
</event>
<event>
     14  10001 -1.35503E+01  8.47513E+01 -1.00000E+00  7.40033E-01
      21    -1     0     0   502   511  0.000000000E+00  0.000000000E+00  1.995486534E+03  1.995486534E+03  0.000000000E+00  0.00000E+00  9.000E+00
      21    -1     0     0   507   502  0.000000000E+00  0.000000000E+00 -5.608608407E+02  5.608608407E+02  0.000000000E+00  0.00000E+00  9.000E+00
      -6     2     1     2     0   501 -1.080759848E+01 -1.039126267E+02  1.950015767E+03  1.960407721E+03  1.724015734E+02  0.00000E+00  9.000E+00
       6     2     1     2   507     0 -3.112232837E+00  2.031226375E+01 -1.823962289E+02  2.523298705E+02  1.731464848E+02  0.00000E+00  9.000E+00
     -24     2     3     3     0     0 -6.119095701E+01 -3.329472872E+01  7.609681852E+02  7.681904233E+02  7.868338743E+01  0.00000E+00  9.000E+00
      24     2     4     4     0     0 -1.927779827E+01 -4.861538712E+00 -1.664824356E+02  1.866784886E+02  8.208037935E+01  0.00000E+00  9.000E+00
     -11     1     6     6     0     0  9.298432726E+00 -3.300644834E+01 -3.412672797E+01  4.837892150E+01  0.000000000E+00  0.00000E+00  9.000E+00
      12     1     6     6     0     0 -2.857623100E+01  2.814490963E+01 -1.323557077E+02  1.382995671E+02  3.814697266E-06  0.00000E+00  9.000E+00
      13     1     5     5     0     0 -6.298414968E+01 -3.832497949E+01  7.588852330E+02  7.624582638E+02  0.000000000E+00  0.00000E+00  9.000E+00
     -14     1     5     5     0     0  1.793192666E+00  5.030250772E+00  2.082952128E+00  5.732159483E+00  3.625608999E-07  0.00000E+00  9.000E+00
       5     1     4     4   513     0  3.478059017E+01  1.143003016E+01 -2.025468774E+01  4.210878670E+01  4.750000000E+00  0.00000E+00  9.000E+00
      -5     1     3     3     0   501  5.038335854E+01 -7.061789801E+01  1.189047582E+03  1.192217298E+03  4.750000000E+00  0.00000E+00  9.000E+00
      21     1     1     2   501   511  1.391983131E+01  8.360036298E+01 -3.329938449E+02  3.436097833E+02  0.000000000E+00  0.00000E+00  9.000E+00
      21     1     4     4   507   513 -1.861502474E+01  1.374377231E+01  4.340894499E+00  2.354259519E+01  8.471411707E-07  0.00000E+00  9.000E+00
#rwgt            1          17  -387.11812317195006                1     7677434           0         110           0
<weights>
-.10199E+02
</weights>
</event>
<event>
     13  10001  1.35503E+01  2.02088E+02 -1.00000E+00  1.11484E-01
      21    -1     0     0   502   501  0.000000000E+00  0.000000000E+00  4.599225216E+02  4.599225216E+02  0.000000000E+00  0.00000E+00  9.000E+00
      21    -1     0     0   512   502  0.000000000E+00  0.000000000E+00 -2.160035657E+02  2.160035657E+02  0.000000000E+00  0.00000E+00  9.000E+00
      -6     2     1     2     0   501 -2.076321265E+01  4.268316588E+00  9.968088201E+01  2.007414243E+02  1.729494483E+02  0.00000E+00  9.000E+00
       6     2     1     2   507     0 -1.801309607E+02  1.766301374E+01  9.155257944E+01  2.663421065E+02  1.726183589E+02  0.00000E+00  9.000E+00
     -24     2     3     3     0     0  5.011760019E+01 -2.235435763E+01  5.201463576E+01  1.111451635E+02  8.146308294E+01  0.00000E+00  9.000E+00
      24     2     4     4     0     0 -1.280611881E+02 -2.240177667E+01  1.225892991E+02  1.935252876E+02  7.431280638E+01  0.00000E+00  9.000E+00
     -11     1     6     6     0     0 -3.667533437E+01 -4.073572587E+01  3.160020532E+01  6.326968065E+01  0.000000000E+00  0.00000E+00  9.000E+00
      12     1     6     6     0     0 -9.138585376E+01  1.833394920E+01  9.098909378E+01  1.302556070E+02  0.000000000E+00  0.00000E+00  9.000E+00
      13     1     5     5     0     0  4.578228941E+01 -5.697475702E+00  7.153403015E+01  8.512107097E+01  0.000000000E+00  0.00000E+00  9.000E+00
     -14     1     5     5     0     0  4.335310782E+00 -1.665688193E+01 -1.951939439E+01  2.602409253E+01  1.011524364E-06  0.00000E+00  9.000E+00
       5     1     4     4   507     0 -5.206977252E+01  4.006479041E+01 -3.103671965E+01  7.281681886E+01  4.750000000E+00  0.00000E+00  9.000E+00
      -5     1     3     3     0   501 -7.088081284E+01  2.662267421E+01  4.766624625E+01  8.959626076E+01  4.750000000E+00  0.00000E+00  9.000E+00
      21     1     1     2   512   507  2.008941733E+02 -2.193133033E+01  5.268549451E+01  2.088425566E+02  1.168007728E-06  0.00000E+00  9.000E+00
#rwgt            2         113   3.5689874928464183                1     7691607           0           1           0
<weights>
0.13550E+02
</weights>
</event>
<event>
     15  10001 -1.35503E+01  1.96348E+01 -1.00000E+00  1.63093E-01
      21    -1     0     0   507   512  0.000000000E+00  0.000000000E+00  2.694219705E+02  2.694219705E+02  0.000000000E+00  0.00000E+00  9.000E+00
      21    -1     0     0   501   502  0.000000000E+00  0.000000000E+00 -6.508846630E+02  6.508846630E+02  0.000000000E+00  0.00000E+00  9.000E+00
      -6     2     1     2     0   502 -1.369476835E+02  1.187747540E+02 -4.606566250E+02  5.241157477E+02  1.721356461E+02  0.00000E+00  9.000E+00
       6     2     1     2   507     0  1.173257826E+02 -1.194854720E+02 -6.601308296E+01  2.496623852E+02  1.730071160E+02  0.00000E+00  9.000E+00
     -24     2     3     3     0     0 -1.579411535E+02  1.288323821E+02 -4.176837771E+02  4.717662409E+02  8.099665250E+01  0.00000E+00  9.000E+00
      24     2     4     4     0     0  8.481510169E+01 -1.300012150E+02 -6.725734348E-01  1.748695006E+02  8.052932703E+01  0.00000E+00  9.000E+00
     -11     1     6     6     0     0  1.660612879E+01 -1.923302231E+01  3.188567883E+01  4.077216176E+01  0.000000000E+00  0.00000E+00  9.000E+00
      12     1     6     6     0     0  6.820897290E+01 -1.107681927E+02 -3.255825226E+01  1.340973388E+02  5.394796609E-06  0.00000E+00  9.000E+00
      13     1     5     5     0     0 -5.883755035E+01  3.235333883E+00 -1.256025996E+02  1.387383787E+02  0.000000000E+00  0.00000E+00  9.000E+00
     -14     1     5     5     0     0 -9.910360313E+01  1.255970483E+02 -2.920811775E+02  3.330278621E+02  3.814697266E-06  0.00000E+00  9.000E+00
       5     1     4     4   513     0  4.592716764E+00  3.409383940E+00 -1.632550324E+01  1.793882667E+01  4.750000000E+00  0.00000E+00  9.000E+00
      -5     1     3     3     0   511  1.142581934E+01  4.955555805E-01 -3.217181159E+01  3.447292973E+01  4.750000000E+00  0.00000E+00  9.000E+00
      21     1     3     3   511   502  9.567650608E+00 -1.055318374E+01 -1.080103634E+01  1.787657717E+01  5.331201500E-07  0.00000E+00  9.000E+00
      21     1     1     2   501   512  1.962190092E+01  7.107179870E-01  1.452070155E+02  1.465285006E+02  4.672030912E-06  0.00000E+00  9.000E+00
      21     1     4     4   507   513  2.791796415E+01  7.106359060E+00 -4.901500628E+01  5.685405792E+01  1.348699152E-06  0.00000E+00  9.000E+00
#rwgt            1          17  -11.538086719334505                1     7692478           0      110110           0
<weights>
-.11782E+02
</weights>
</event>
<event>
     14  10001  1.35503E+01  4.36737E+01 -1.00000E+00  2.31441E-01
      21    -1     0     0   507   512  0.000000000E+00  0.000000000E+00  4.156552125E+02  4.156552125E+02  0.000000000E+00  0.00000E+00  9.000E+00
      21    -1     0     0   501   502  0.000000000E+00  0.000000000E+00 -2.346525235E+02  2.346525235E+02  0.000000000E+00  0.00000E+00  9.000E+00
      -6     2     1     2     0   502 -5.444785503E+01  1.507058358E+02 -9.972870732E+01  2.607304905E+02  1.798826166E+02  0.00000E+00  9.000E+00
       6     2     1     2   507     0  2.350276029E+01 -1.198870506E+02  1.726048089E+02  2.729635442E+02  1.726018302E+02  0.00000E+00  9.000E+00
     -24     2     3     3     0     0 -2.492814221E+01  1.024076431E+02 -1.372222030E+02  1.921669062E+02  8.360292558E+01  0.00000E+00  9.000E+00
      24     2     4     4     0     0  7.573807165E+01 -8.137486203E+01  7.700645458E+01  1.573204542E+02  8.038412536E+01  0.00000E+00  9.000E+00
     -11     1     6     6     0     0  9.892696249E+00 -6.923890670E+01  4.443788147E+01  8.286505264E+01  0.000000000E+00  0.00000E+00  9.000E+00
      12     1     6     6     0     0  6.584537540E+01 -1.213595532E+01  3.256857311E+01  7.445540160E+01  0.000000000E+00  0.00000E+00  9.000E+00
      13     1     5     5     0     0  5.497863067E+00  3.243505574E+01  2.474530668E+00  3.299064475E+01  0.000000000E+00  0.00000E+00  9.000E+00
     -14     1     5     5     0     0 -3.042600528E+01  6.997258740E+01 -1.396967337E+02  1.591762614E+02  4.672030912E-06  0.00000E+00  9.000E+00
       5     1     4     4   507     0 -5.223531136E+01 -3.851218854E+01  9.559835428E+01  1.156430900E+02  4.750000000E+00  0.00000E+00  9.000E+00
      -5     1     3     3     0   511 -1.742446438E+01  3.023208554E+01  2.726289421E+01  4.453559089E+01  4.750000000E+00  0.00000E+00  9.000E+00
      21     1     1     2   501   512  3.094509474E+01 -3.081878526E+01  1.081265874E+02  1.166137013E+02  1.348699152E-06  0.00000E+00  9.000E+00
      21     1     3     3   511   502 -1.209524844E+01  1.806610715E+01  1.023060152E+01  2.402799346E+01  7.996802250E-07  0.00000E+00  9.000E+00
#rwgt            1          17   37.669442284898494                1     7696340           0         111           0
<weights>
0.13310E+02
</weights>
</event>
<event>
     15  10001  1.35503E+01  8.43287E+01 -1.00000E+00  1.78158E-01
      21    -1     0     0   511   501  0.000000000E+00  0.000000000E+00  5.104197312E+02  5.104197312E+02  0.000000000E+00  0.00000E+00  9.000E+00
      21    -1     0     0   501   502  0.000000000E+00  0.000000000E+00 -1.448598255E+03  1.448598255E+03  0.000000000E+00  0.00000E+00  9.000E+00
      -6     2     1     2     0   502  3.636684645E+01 -9.046480510E+01  5.686438415E+01  2.073227162E+02  1.739043472E+02  0.00000E+00  9.000E+00
       6     2     1     2   507     0 -1.203668208E+02  9.790357278E+01  3.391504365E+02  4.148395518E+02  1.816467839E+02  0.00000E+00  9.000E+00
     -24     2     3     3     0     0  3.146418504E+01 -9.419795829E+01  9.561587522E+01  1.634040572E+02  8.772251723E+01  0.00000E+00  9.000E+00
      24     2     4     4     0     0 -1.138479486E+02  8.139792108E+01  1.288943972E+02  2.037541506E+02  7.290412395E+01  0.00000E+00  9.000E+00
     -11     1     6     6     0     0 -6.482929410E+01  1.890598257E+01  9.694274038E+01  1.181446929E+02  0.000000000E+00  0.00000E+00  9.000E+00
      12     1     6     6     0     0 -4.901865451E+01  6.249193851E+01  3.195165683E+01  8.560945768E+01  2.589888690E-06  0.00000E+00  9.000E+00
      13     1     5     5     0     0  4.683799015E+01 -9.186610283E+01  1.033869673E+02  1.460206943E+02  0.000000000E+00  0.00000E+00  9.000E+00
     -14     1     5     5     0     0 -1.537380511E+01 -2.331855469E+00 -7.771092049E+00  1.738336288E+01  1.118282261E-06  0.00000E+00  9.000E+00
       5     1     4     4   514     0 -3.899777873E+00  1.160284614E+01  1.499108133E+02  1.504847127E+02  4.750000000E+00  0.00000E+00  9.000E+00
      -5     1     3     3     0   512  1.351292713E+00 -5.722897907E+00 -2.866132880E+01  2.964138697E+01  4.750000000E+00  0.00000E+00  9.000E+00
      21     1     1     2   511   507  8.399997434E+01 -7.438767686E+00 -1.334193345E+03  1.336855718E+03  3.737624730E-05  0.00000E+00  9.000E+00
      21     1     3     3   512   502  3.551368697E+00  9.456051105E+00 -1.009016226E+01  1.427727203E+01  4.915124924E-07  0.00000E+00  9.000E+00
      21     1     4     4   507   514 -2.619094301E+00  4.902805556E+00  6.034522599E+01  6.060068859E+01  2.023048729E-06  0.00000E+00  9.000E+00
#rwgt            1          17   8.6263778142384293                1     7708095           0       11110           0
<weights>
0.12012E+02
</weights>
</event>
<event>
     15  10001  1.35503E+01  4.23611E+01 -1.00000E+00  2.90672E-01
      21    -1     0     0   512   501  0.000000000E+00  0.000000000E+00  2.833552763E+02  2.833552763E+02  0.000000000E+00  0.00000E+00  9.000E+00
      21    -1     0     0   507   502  0.000000000E+00  0.000000000E+00 -2.923224966E+02  2.923224966E+02  0.000000000E+00  0.00000E+00  9.000E+00
      -6     2     1     2     0   501  4.993475679E+01 -1.743796338E+02  5.280816744E+01  2.570050782E+02  1.742445724E+02  0.00000E+00  9.000E+00
       6     2     1     2   507     0 -9.456554398E+00  1.618903853E+02 -1.050104715E+02  2.581438696E+02  1.712107911E+02  0.00000E+00  9.000E+00
     -24     2     3     3     0     0  1.201411411E+01 -2.496423764E+01 -1.723172838E+01  8.676124927E+01  8.039297117E+01  0.00000E+00  9.000E+00
      24     2     4     4     0     0 -1.771461680E+01  1.735875744E+02 -4.071674279E+01  1.916725702E+02  6.807398459E+01  0.00000E+00  9.000E+00
     -11     1     6     6     0     0 -4.201611922E+00  8.664512376E+01 -5.474202126E+01  1.025754352E+02  0.000000000E+00  0.00000E+00  9.000E+00
      12     1     6     6     0     0 -1.351300488E+01  8.694245068E+01  1.402527847E+01  8.909713501E+01  2.977847099E-06  0.00000E+00  9.000E+00
      13     1     5     5     0     0  4.024069898E+01  5.285301060E+00  3.017228688E+00  4.069830378E+01  0.000000000E+00  0.00000E+00  9.000E+00
     -14     1     5     5     0     0 -2.822658487E+01 -3.024953870E+01 -2.024895707E+01  4.606294549E+01  7.539457465E-07  0.00000E+00  9.000E+00
       5     1     4     4   513     0  6.572702853E+00 -1.042726551E+01 -6.183939176E+01  6.323449345E+01  4.750000000E+00  0.00000E+00  9.000E+00
      -5     1     3     3     0   511  3.712139921E+01 -1.486528121E+02  6.754014398E+01  1.675108664E+02  4.750000000E+00  0.00000E+00  9.000E+00
      21     1     1     2   512   502 -4.047820239E+01  1.248924851E+01  4.323508385E+01  6.052882514E+01  1.168007728E-06  0.00000E+00  9.000E+00
      21     1     3     3   511   501  7.992434728E-01 -7.625841138E-01  2.499751847E+00  2.732962487E+00  5.960464478E-08  0.00000E+00  9.000E+00
      21     1     4     4   507   513  1.685359547E+00 -1.269923601E+00 -2.454336991E+00  3.236805960E+00  9.884312124E-08  0.00000E+00  9.000E+00
#rwgt            1          17   78.959985725168892                1     7715453           0       11110           0
<weights>
0.12998E+02
</weights>
</event>
<event>
     14  10001  1.35503E+01  3.56753E+01 -1.00000E+00  7.51754E-01
      21    -1     0     0   507   511  0.000000000E+00  0.000000000E+00  5.902803001E+02  5.902803001E+02  0.000000000E+00  0.00000E+00  9.000E+00
      21    -1     0     0   501   502  0.000000000E+00  0.000000000E+00 -1.896799720E+02  1.896799720E+02  0.000000000E+00  0.00000E+00  9.000E+00
      -6     2     1     2     0   502 -1.704804917E+02 -1.509617811E+02  2.028888052E+01  2.866623785E+02  1.729468796E+02  0.00000E+00  9.000E+00
       6     2     1     2   507     0  1.570079161E+02  1.179281710E+02  3.759511094E+02  4.573570778E+02  1.711073370E+02  0.00000E+00  9.000E+00
     -24     2     3     3     0     0 -1.577340847E+02 -1.194614926E+02 -3.800410599E+01  2.190208687E+02  8.587630156E+01  0.00000E+00  9.000E+00
      24     2     4     4     0     0  4.410843920E+01  2.809267577E+00  1.366277671E+02  1.654565675E+02  8.219052621E+01  0.00000E+00  9.000E+00
     -11     1     6     6     0     0  3.349596193E+01  2.224310437E+01  1.375382485E+02  1.432951672E+02  0.000000000E+00  0.00000E+00  9.000E+00
      12     1     6     6     0     0  1.061247727E+01 -1.943383680E+01 -9.104813719E-01  2.216140029E+01  9.543725527E-07  0.00000E+00  9.000E+00
      13     1     5     5     0     0 -1.331718505E+02 -7.576913735E+01  4.527273409E+00  1.532847029E+02  0.000000000E+00  0.00000E+00  9.000E+00
     -14     1     5     5     0     0 -2.456223412E+01 -4.369235527E+01 -4.253137940E+01  6.573616575E+01  2.286830675E-06  0.00000E+00  9.000E+00
       5     1     4     4   512     0  8.357485075E+01  9.963111939E+01  2.128040174E+02  2.494378238E+02  4.750000000E+00  0.00000E+00  9.000E+00
      -5     1     3     3     0   502 -1.274640703E+01 -3.150028847E+01  5.829298652E+01  6.764150976E+01  4.750000000E+00  0.00000E+00  9.000E+00
      21     1     1     2   501   511  1.347257556E+01  3.303361013E+01  4.360338177E+00  3.594081578E+01  1.023743393E-06  0.00000E+00  9.000E+00
      21     1     4     4   507   512  2.932462617E+01  1.548778401E+01  2.651932491E+01  4.246268653E+01  0.000000000E+00  0.00000E+00  9.000E+00
#rwgt            1          17   19.963110268662959                1     7723922           0         110           0
<weights>
0.30830E+02
</weights>
</event>
<event>
     15  10001  1.35503E+01  2.39298E+01 -1.00000E+00  4.63583E-01
      21    -1     0     0   502   501  0.000000000E+00  0.000000000E+00  1.290768195E+02  1.290768195E+02  0.000000000E+00  0.00000E+00  9.000E+00
       2    -1     0     0   507     0  0.000000000E+00  0.000000000E+00 -5.785695853E+02  5.785695853E+02  0.000000000E+00  0.00000E+00  9.000E+00
      -6     2     1     2     0   501 -8.444441009E+01  1.165310299E+02 -1.213296747E+02  2.531632247E+02  1.692937950E+02  0.00000E+00  9.000E+00
       6     2     1     2   507     0  7.253167869E+01 -1.372848337E+02 -1.515323610E+02  2.762388299E+02  1.709908324E+02  0.00000E+00  9.000E+00
     -24     2     3     3     0     0 -7.952233672E+01  1.479719975E+02 -8.345389910E+01  2.031915043E+02  7.811990827E+01  0.00000E+00  9.000E+00
      24     2     4     4     0     0  7.133105330E+01 -1.570778432E+01 -6.656399045E+01  1.269612051E+02  7.970902784E+01  0.00000E+00  9.000E+00
     -11     1     6     6     0     0  3.328303699E+01  3.183507054E+01 -1.956613704E+01  5.004064334E+01  0.000000000E+00  0.00000E+00  9.000E+00
      12     1     6     6     0     0  3.804801632E+01 -4.754285486E+01 -4.699785341E+01  7.692056174E+01  1.348699152E-06  0.00000E+00  9.000E+00
      13     1     5     5     0     0 -7.454149727E+01  1.070017585E+02 -2.685478872E+01  1.331427460E+02  0.000000000E+00  0.00000E+00  9.000E+00
     -14     1     5     5     0     0 -4.980839452E+00  4.097023901E+01 -5.659911037E+01  7.004875831E+01  6.743495762E-07  0.00000E+00  9.000E+00
       5     1     4     4   511     0  1.844645524E+00 -1.143401052E+02 -7.460775661E+01  1.366233590E+02  4.750000000E+00  0.00000E+00  9.000E+00
      -5     1     3     3     0   512 -3.941880864E+00 -2.971340358E+01 -3.371874630E+01  4.536453602E+01  4.750000000E+00  0.00000E+00  9.000E+00
       2     1     1     2   502     0  1.191273140E+01  2.075380385E+01 -1.766307301E+02  1.782443501E+02  0.000000000E+00  0.00000E+00  9.000E+00
      21     1     4     4   507   511 -6.440201369E-01 -7.236944228E+00 -1.036061393E+01  1.265426587E+01  2.920019320E-07  0.00000E+00  9.000E+00
      21     1     3     3   512   501 -9.801925061E-01 -1.727564015E+00 -4.157029331E+00  4.607184350E+00  5.960464478E-08  0.00000E+00  9.000E+00
#rwgt            1          17   11.246169417945712                1     7729158           0       11011           0
<weights>
0.13071E+02
</weights>
</event>
<event>
     14  10001  1.35503E+01  2.94393E+01 -1.00000E+00  7.49961E-01
      21    -1     0     0   507   511  0.000000000E+00  0.000000000E+00  9.893638981E+02  9.893638981E+02  0.000000000E+00  0.00000E+00  9.000E+00
      21    -1     0     0   501   502  0.000000000E+00  0.000000000E+00 -3.124190636E+02  3.124190636E+02  0.000000000E+00  0.00000E+00  9.000E+00
      -6     2     1     2     0   502 -1.150620234E+02  5.030884666E+01 -1.261009976E+02  2.477550014E+02  1.723682971E+02  0.00000E+00  9.000E+00
       6     2     1     2   507     0  1.428378727E+02 -6.006457739E+01 -1.801206071E+01  2.324424592E+02  1.723213602E+02  0.00000E+00  9.000E+00
     -24     2     3     3     0     0 -2.390329906E+01  7.546226317E+01 -4.278986941E+01  1.216363510E+02  8.184441399E+01  0.00000E+00  9.000E+00
      24     2     4     4     0     0  1.658716998E+02 -7.824794884E+01 -2.161295829E+01  2.014219774E+02  8.042095930E+01  0.00000E+00  9.000E+00
     -11     1     6     6     0     0  1.166920523E+02 -7.576961399E+01 -4.590961116E+01  1.465119854E+02  0.000000000E+00  0.00000E+00  9.000E+00
      12     1     6     6     0     0  4.917964753E+01 -2.478334857E+00  2.429665286E+01  5.490999195E+01  1.261592536E-06  0.00000E+00  9.000E+00
      13     1     5     5     0     0  2.905585210E+01  4.170899992E+01 -1.531963549E+01  5.309024814E+01  0.000000000E+00  0.00000E+00  9.000E+00
     -14     1     5     5     0     0 -5.295915116E+01  3.375326325E+01 -2.747023392E+01  6.854610290E+01  3.371747881E-07  0.00000E+00  9.000E+00
       5     1     4     4   512     0 -2.189348043E+01  1.544458219E+01  1.257236613E+00  2.723972739E+01  4.750000000E+00  0.00000E+00  9.000E+00
      -5     1     3     3     0   502 -9.115872433E+01 -2.515341651E+01 -8.331112824E+01  1.261186504E+02  4.750000000E+00  0.00000E+00  9.000E+00
      21     1     1     2   501   511 -2.777584927E+01  9.755730737E+00  8.210578929E+02  8.215855011E+02  1.078959322E-05  0.00000E+00  9.000E+00
      21     1     4     4   507   512 -1.140346753E+00  2.738789256E+00  2.343660972E+00  3.780754430E+00  8.429369702E-08  0.00000E+00  9.000E+00
#rwgt            1          17   9.0482078531610473                1     7736546           0         110           0
<weights>
0.12043E+02
</weights>
</event>
<event>
     15  10001 -1.35503E+01  5.54897E+00 -1.00000E+00  4.79663E-01
      21    -1     0     0   512   501  0.000000000E+00  0.000000000E+00  3.304173506E+02  3.304173506E+02  0.000000000E+00  0.00000E+00  9.000E+00
      21    -1     0     0   507   502  0.000000000E+00  0.000000000E+00 -2.720801504E+02  2.720801504E+02  0.000000000E+00  0.00000E+00  9.000E+00
      -6     2     1     2     0   501  4.629065575E+00  1.097599167E+02  2.247699866E+02  3.046362587E+02  1.738189738E+02  0.00000E+00  9.000E+00
       6     2     1     2   507     0 -3.704374285E+00 -1.042885340E+02 -1.394683250E+01  1.452743581E+02  1.001014698E+02  0.00000E+00  9.000E+00
     -24     2     3     3     0     0 -4.264479456E+01  9.830237836E+01  2.173578280E+02  2.545506589E+02  7.790812813E+01  0.00000E+00  9.000E+00
      24     2     4     4     0     0 -1.262084165E+00 -1.066250755E+02 -4.348091456E+00  1.332784375E+02  7.983568392E+01  0.00000E+00  9.000E+00
     -11     1     6     6     0     0  3.535193011E+01 -4.994439549E+01 -1.930437710E+01  6.416276630E+01  0.000000000E+00  0.00000E+00  9.000E+00
      12     1     6     6     0     0 -3.661401428E+01 -5.668068001E+01  1.495628565E+01  6.911567122E+01  1.359195024E-06  0.00000E+00  9.000E+00
      13     1     5     5     0     0 -3.997774111E+01  5.271346044E+01  5.544076578E+01  8.631689989E+01  0.000000000E+00  0.00000E+00  9.000E+00
     -14     1     5     5     0     0 -2.667053442E+00  4.558891792E+01  1.619170623E+02  1.682337590E+02  3.303624740E-06  0.00000E+00  9.000E+00
       5     1     4     4   511     0 -3.143002881E+00  1.313671140E+00 -7.022567559E+00  9.136911628E+00  4.750000000E+00  0.00000E+00  9.000E+00
      -5     1     3     3     0   513  4.534052245E+01  1.075554445E+01  5.302837177E+00  4.713944521E+01  4.750000000E+00  0.00000E+00  9.000E+00
      21     1     1     2   512   502 -9.246912894E-01 -5.471382669E+00 -1.524859539E+02  1.525868842E+02  5.722045898E-06  0.00000E+00  9.000E+00
      21     1     4     4   507   511  7.007127608E-01  1.022870342E+00 -2.576173488E+00  2.859008910E+00  2.980232239E-08  0.00000E+00  9.000E+00
      21     1     3     3   513   501  1.933337681E+00  7.019938734E-01  2.109321418E+00  2.946154584E+00  5.960464478E-08  0.00000E+00  9.000E+00
#rwgt            1          17  -1543.6011943158062                1     7750901           0       11011           0
<weights>
-.13671E+02
</weights>
</event>
<event>
     13  10001  1.35503E+01  1.09876E+02 -1.00000E+00  1.22016E-01
      21    -1     0     0   502   501  0.000000000E+00  0.000000000E+00  1.421478739E+02  1.421478739E+02  0.000000000E+00  0.00000E+00  9.000E+00
       1    -1     0     0   507     0  0.000000000E+00  0.000000000E+00 -1.206011706E+03  1.206011706E+03  0.000000000E+00  0.00000E+00  9.000E+00
      -6     2     1     2     0   501 -7.605896636E+01  2.120293472E+02 -3.734034793E+02  4.686862694E+02  1.717418131E+02  0.00000E+00  9.000E+00
       6     2     1     2   507     0  8.936232227E+01 -1.029617806E+02 -5.462865418E+01  2.342178089E+02  1.824470862E+02  0.00000E+00  9.000E+00
     -24     2     3     3     0     0 -8.887426079E+01  6.825043693E+01 -2.102259165E+02  2.507732448E+02  7.832961101E+01  0.00000E+00  9.000E+00
      24     2     4     4     0     0  1.161093253E+02 -6.173312863E+01  6.784608174E+00  1.554183470E+02  8.256195899E+01  0.00000E+00  9.000E+00
     -11     1     6     6     0     0  5.901225768E+01 -5.161020607E+01  4.060557240E+01  8.828857478E+01  0.000000000E+00  0.00000E+00  9.000E+00
      12     1     6     6     0     0  5.709706761E+01 -1.012292255E+01 -3.382096422E+01  6.712977217E+01  4.768371582E-07  0.00000E+00  9.000E+00
      13     1     5     5     0     0 -5.683018147E+01  8.358847048E+01 -1.509304823E+02  1.816499722E+02  0.000000000E+00  0.00000E+00  9.000E+00
     -14     1     5     5     0     0 -3.204407932E+01 -1.533803355E+01 -5.929543422E+01  6.912327257E+01  1.168007728E-06  0.00000E+00  9.000E+00
       5     1     4     4   507     0 -2.674700302E+01 -4.122865200E+01 -6.141326236E+01  7.879946199E+01  4.750000000E+00  0.00000E+00  9.000E+00
      -5     1     3     3     0   501  1.281529443E+01  1.437789103E+02 -1.631775628E+02  2.179130246E+02  4.750000000E+00  0.00000E+00  9.000E+00
       1     1     1     2   502     0 -1.330335591E+01 -1.090675666E+02 -6.358316984E+02  6.452555014E+02  0.000000000E+00  0.00000E+00  9.000E+00
#rwgt            2          86  0.34702756870486784                1     7758802           0           1           0
<weights>
0.13550E+02
</weights>
</event>
<event>
     15  10001  1.35503E+01  6.39433E+01 -1.00000E+00  1.87041E-01
      21    -1     0     0   507   501  0.000000000E+00  0.000000000E+00  2.216655893E+03  2.216655893E+03  0.000000000E+00  0.00000E+00  9.000E+00
       1    -1     0     0   501     0  0.000000000E+00  0.000000000E+00 -1.806527130E+02  1.806527130E+02  0.000000000E+00  0.00000E+00  9.000E+00
      -6     2     1     2     0   502 -2.581919187E+01  6.333649700E+01  1.302873002E+03  1.316140197E+03  1.734036231E+02  0.00000E+00  9.000E+00
       6     2     1     2   507     0  4.493415335E+01 -2.317100456E+00  8.923495006E+02  9.095888610E+02  1.704107324E+02  0.00000E+00  9.000E+00
     -24     2     3     3     0     0 -4.710784439E+01  4.575164908E+01  4.247405584E+02  4.373109359E+02  8.077097461E+01  0.00000E+00  9.000E+00
      24     2     4     4     0     0  7.746211914E+01 -4.546475706E+01  5.624824554E+02  5.751162871E+02  7.940281478E+01  0.00000E+00  9.000E+00
     -11     1     6     6     0     0  7.231852434E+01 -5.801980056E+01  3.459359434E+02  3.581451426E+02  0.000000000E+00  0.00000E+00  9.000E+00
      12     1     6     6     0     0  5.143594792E+00  1.255504350E+01  2.165465120E+02  2.169711445E+02  4.672030912E-06  0.00000E+00  9.000E+00
      13     1     5     5     0     0  1.515822370E+01  1.018344635E+00  1.846969210E+02  1.853206987E+02  0.000000000E+00  0.00000E+00  9.000E+00
     -14     1     5     5     0     0 -6.226606809E+01  4.473330444E+01  2.400436374E+02  2.519902372E+02  0.000000000E+00  0.00000E+00  9.000E+00
       5     1     4     4   511     0 -3.117709080E+01  4.002698317E+01  3.200940496E+02  3.241248732E+02  4.750000000E+00  0.00000E+00  9.000E+00
      -5     1     3     3     0   512  2.228284857E+01  6.393226382E+00  6.241436543E+02  6.245920768E+02  4.750000000E+00  0.00000E+00  9.000E+00
       1     1     1     2   502     0 -1.911496148E+01 -6.101939655E+01 -1.592193227E+02  1.715795478E+02  0.000000000E+00  0.00000E+00  9.000E+00
      21     1     3     3   512   502 -9.941960416E-01  1.119162154E+01  2.539887895E+02  2.542371845E+02  0.000000000E+00  0.00000E+00  9.000E+00
      21     1     4     4   507   511 -1.350874984E+00  3.120673435E+00  9.772995547E+00  1.034770061E+01  1.192092896E-07  0.00000E+00  9.000E+00
#rwgt            1          17   12.279147669483686                1     7759336           0       11110           0
<weights>
0.13427E+02
</weights>
</event>
<event>
     15  10001  1.35503E+01  8.44355E+01 -1.00000E+00  2.11071E-01
      21    -1     0     0   511   501  0.000000000E+00  0.000000000E+00  6.130692572E+02  6.130692572E+02  0.000000000E+00  0.00000E+00  9.000E+00
      21    -1     0     0   501   502  0.000000000E+00  0.000000000E+00 -2.021759448E+02  2.021759448E+02  0.000000000E+00  0.00000E+00  9.000E+00
      -6     2     1     2     0   502  7.284919601E+01  2.170709531E+02  2.132010150E+02  3.576175181E+02  1.732305182E+02  0.00000E+00  9.000E+00
       6     2     1     2   507     0 -5.946029017E+01 -1.337037792E+02  2.658752500E+02  3.490999753E+02  1.725367136E+02  0.00000E+00  9.000E+00
     -24     2     3     3     0     0  7.690318693E+01  2.127191840E+02  2.301247894E+02  3.342552639E+02  8.721015634E+01  0.00000E+00  9.000E+00
      24     2     4     4     0     0  3.060582576E+01 -7.422728904E+01  1.150665721E+02  1.632437492E+02  8.343739344E+01  0.00000E+00  9.000E+00
     -11     1     6     6     0     0  1.842104064E+00 -1.192936520E+01 -1.313181952E+01  1.783669772E+01  0.000000000E+00  0.00000E+00  9.000E+00
      12     1     6     6     0     0  2.876372169E+01 -6.229792384E+01  1.281983916E+02  1.454070515E+02  1.907348633E-06  0.00000E+00  9.000E+00
      13     1     5     5     0     0 -4.728424737E+00  1.071795216E+02  8.301753273E+01  1.356529343E+02  0.000000000E+00  0.00000E+00  9.000E+00
     -14     1     5     5     0     0  8.163161167E+01  1.055396624E+02  1.471072567E+02  1.986023296E+02  2.697398305E-06  0.00000E+00  9.000E+00
       5     1     4     4   512     0 -9.014963576E+01 -5.910569942E+01  1.487627573E+02  1.837753003E+02  4.750000000E+00  0.00000E+00  9.000E+00
      -5     1     3     3     0   513 -7.238489738E+00  7.158652978E+00 -1.489743557E+01  1.865846009E+01  4.750000000E+00  0.00000E+00  9.000E+00
      21     1     1     2   511   507 -1.338890584E+01 -8.336717389E+01 -6.818295267E+01  1.085277085E+02  2.132480600E-06  0.00000E+00  9.000E+00
      21     1     3     3   513   502  3.184498815E+00 -2.806883936E+00 -2.026338770E+00  4.703794101E+00  2.064765462E-07  0.00000E+00  9.000E+00
      21     1     4     4   507   512  8.351983031E-02 -3.707907067E-01  2.045920607E+00  2.080925862E+00  2.980232239E-08  0.00000E+00  9.000E+00
#rwgt            1          17   121.75766168342938                1     7768565           0       11110           0
<weights>
0.13048E+02
</weights>
</event>
<event>
     15  10001  1.35503E+01  1.61204E+01 -1.00000E+00  2.11166E-01
       1    -1     0     0   512     0  0.000000000E+00  0.000000000E+00  1.693829707E+02  1.693829707E+02  0.000000000E+00  0.00000E+00  9.000E+00
      -1    -1     0     0     0   502  0.000000000E+00  0.000000000E+00 -9.165778804E+02  9.165778804E+02  0.000000000E+00  0.00000E+00  9.000E+00
      -6     2     1     2     0   502 -1.554308023E-01  3.112771835E+02 -2.764811899E+02  4.504722139E+02  1.720170283E+02  0.00000E+00  9.000E+00
       6     2     1     2   507     0 -1.562179213E+01 -3.145857706E+02 -4.918406888E+02  6.089139062E+02  1.722226307E+02  0.00000E+00  9.000E+00
     -24     2     3     3     0     0 -2.344577871E+01  1.550461201E+02 -7.230118007E+01  1.915563307E+02  8.292986980E+01  0.00000E+00  9.000E+00
      24     2     4     4     0     0  4.902419013E+01 -1.977541210E+02 -2.539189008E+02  3.356349501E+02  8.164525684E+01  0.00000E+00  9.000E+00
     -11     1     6     6     0     0  3.194840202E+01 -2.756346632E+01 -2.236178094E+01  4.775452140E+01  0.000000000E+00  0.00000E+00  9.000E+00
      12     1     6     6     0     0  1.707578811E+01 -1.701906547E+02 -2.315571199E+02  2.878804287E+02  5.394796609E-06  0.00000E+00  9.000E+00
      13     1     5     5     0     0  1.131966797E+01  2.264740002E+01 -4.550033248E+01  5.207033576E+01  0.000000000E+00  0.00000E+00  9.000E+00
     -14     1     5     5     0     0 -3.476544669E+01  1.323987200E+02 -2.680084760E+01  1.394859949E+02  1.581489940E-06  0.00000E+00  9.000E+00
       5     1     4     4   513     0 -6.108834326E+01 -1.036480261E+02 -2.194073062E+02  2.502735054E+02  4.750000000E+00  0.00000E+00  9.000E+00
      -5     1     3     3     0   511  2.540303389E+01  1.436615707E+02 -1.816515801E+02  2.330318006E+02  4.750000000E+00  0.00000E+00  9.000E+00
      21     1     1     2   512   507  1.577722293E+01  3.308587068E+00  2.112696892E+01  2.657473099E+01  8.596304120E-07  0.00000E+00  9.000E+00
      21     1     3     3   511   502 -2.112685978E+00  1.256949270E+01 -2.252842972E+01  2.588408264E+01  3.371747881E-07  0.00000E+00  9.000E+00
      21     1     4     4   507   513 -3.557638993E+00 -1.318362349E+01 -1.851448182E+01  2.300545068E+01  4.129530925E-07  0.00000E+00  9.000E+00
#rwgt            1           4  0.20860322148753252                1     7777817           0       11110           0
<weights>
0.14925E+02
</weights>
</event>
<event>
     14  10001  1.35503E+01  2.38461E+01 -1.00000E+00  2.71351E-01
      21    -1     0     0   511   501  0.000000000E+00  0.000000000E+00  3.215582037E+02  3.215582037E+02  0.000000000E+00  0.00000E+00  9.000E+00
      21    -1     0     0   501   502  0.000000000E+00  0.000000000E+00 -1.458554912E+02  1.458554912E+02  0.000000000E+00  0.00000E+00  9.000E+00
      -6     2     1     2     0   502  4.659442990E+01 -1.326290179E+01  7.396040535E+01  1.943130904E+02  1.730332051E+02  0.00000E+00  9.000E+00
       6     2     1     2   507     0 -2.389159173E+01  5.967711708E+00  1.429746052E+02  2.254693010E+02  1.725927177E+02  0.00000E+00  9.000E+00
     -24     2     3     3     0     0 -1.634194925E+01  3.909325275E+01  2.015177593E+01  9.485604320E+01  8.243926941E+01  0.00000E+00  9.000E+00
      24     2     4     4     0     0 -3.882953628E+01  1.359636569E+00  7.180402333E+00  8.869574875E+01  7.940904337E+01  0.00000E+00  9.000E+00
     -11     1     6     6     0     0 -3.341660285E+00 -3.492443876E+01 -7.469260125E+00  3.587022390E+01  0.000000000E+00  0.00000E+00  9.000E+00
      12     1     6     6     0     0 -3.548787600E+01  3.628407533E+01  1.464966246E+01  5.282552485E+01  1.545128989E-06  0.00000E+00  9.000E+00
      13     1     5     5     0     0  1.044013368E+01 -1.509718019E+01  2.843396749E+01  3.384393222E+01  0.000000000E+00  0.00000E+00  9.000E+00
     -14     1     5     5     0     0 -2.678208293E+01  5.419043294E+01 -8.282191564E+00  6.101211098E+01  1.603796965E-06  0.00000E+00  9.000E+00
       5     1     4     4   507     0  1.493794456E+01  4.608075139E+00  1.357942029E+02  1.367735522E+02  4.750000000E+00  0.00000E+00  9.000E+00
      -5     1     3     3     0   512  6.136209306E+01 -4.996218039E+01  5.486124808E+01  9.640459001E+01  4.750000000E+00  0.00000E+00  9.000E+00
      21     1     1     2   511   507 -2.270283818E+01  7.295190078E+00 -4.123229809E+01  4.763130342E+01  4.768371582E-07  0.00000E+00  9.000E+00
      21     1     3     3   512   502  1.574286096E+00 -2.393974154E+00 -1.052618654E+00  3.052457206E+00  4.470348358E-08  0.00000E+00  9.000E+00
#rwgt            1          17   17.339859363541642                1     7782407           0         111           0
<weights>
0.37699E+01
</weights>
</event>
<event>
     14  10001  1.35503E+01  3.90611E+01 -1.00000E+00  7.52612E-01
      21    -1     0     0   507   512  0.000000000E+00  0.000000000E+00  9.974354871E+01  9.974354871E+01  0.000000000E+00  0.00000E+00  9.000E+00
      21    -1     0     0   501   502  0.000000000E+00  0.000000000E+00 -1.058441708E+03  1.058441708E+03  0.000000000E+00  0.00000E+00  9.000E+00
      -6     2     1     2     0   502  2.746602556E+01 -1.389004339E+01 -2.078993429E+02  2.729713198E+02  1.741949734E+02  0.00000E+00  9.000E+00
       6     2     1     2   507     0 -2.988789054E+01 -2.509591001E+01 -1.208284542E+02  2.540337509E+02  2.200239545E+02  0.00000E+00  9.000E+00
     -24     2     3     3     0     0  3.505267378E+01 -6.500239951E+01 -8.149767404E+01  1.363332044E+02  8.056593489E+01  0.00000E+00  9.000E+00
      24     2     4     4     0     0 -3.360449823E+01 -3.693664898E+01 -1.745957939E+02  1.984326171E+02  7.998896152E+01  0.00000E+00  9.000E+00
     -11     1     6     6     0     0 -5.104451534E+01 -4.645708712E+00 -1.352081341E+02  1.445972500E+02  0.000000000E+00  0.00000E+00  9.000E+00
      12     1     6     6     0     0  1.744001711E+01 -3.229094027E+01 -3.938765971E+01  5.383536716E+01  1.168007728E-06  0.00000E+00  9.000E+00
      13     1     5     5     0     0  7.645491436E+00  1.583797965E+01  1.009961794E+00  1.761576457E+01  0.000000000E+00  0.00000E+00  9.000E+00
     -14     1     5     5     0     0  2.740718234E+01 -8.084037916E+01 -8.250763583E+01  1.187174398E+02  2.132480600E-06  0.00000E+00  9.000E+00
       5     1     4     4   511     0  3.716870131E+00  1.147965721E+01  4.512653809E+01  4.695279111E+01  4.750000000E+00  0.00000E+00  9.000E+00
      -5     1     3     3     0   502 -7.586648218E+00  5.111235612E+01 -1.264016689E+02  1.366381154E+02  4.750000000E+00  0.00000E+00  9.000E+00
      21     1     1     2   501   512  2.421864983E+00  3.898595340E+01 -6.299703626E+02  6.311801864E+02  1.868812365E-05  0.00000E+00  9.000E+00
      21     1     4     4   507   511 -2.624417128E-04  3.610817594E-01  8.640801563E+00  8.648342718E+00  2.064765462E-07  0.00000E+00  9.000E+00
#rwgt            1          17   49.216644907348481                1     7791709           0         110           0
<weights>
0.15555E+02
</weights>
</event>
<event>
     15  10001  1.35503E+01  1.27428E+01 -1.00000E+00  2.16339E-01
      -2    -1     0     0     0   511  0.000000000E+00  0.000000000E+00  8.466119739E+01  8.466119739E+01  0.000000000E+00  0.00000E+00  9.000E+00
       2    -1     0     0   507     0  0.000000000E+00  0.000000000E+00 -4.104956590E+02  4.104956590E+02  0.000000000E+00  0.00000E+00  9.000E+00
      -6     2     1     2     0   501 -3.243975149E+01  1.465799556E+01 -1.981457673E+02  2.656069618E+02  1.732573772E+02  0.00000E+00  9.000E+00
       6     2     1     2   507     0  2.894323681E+01 -2.691174882E+01 -1.242283389E+02  2.163455716E+02  1.726579654E+02  0.00000E+00  9.000E+00
     -24     2     3     3     0     0  3.191594988E+01 -8.661654056E+00 -1.708742673E+02  1.914795715E+02  7.982956214E+01  0.00000E+00  9.000E+00
      24     2     4     4     0     0 -8.335351286E+00  4.430691361E+01 -7.697630274E+01  1.226626483E+02  8.419140942E+01  0.00000E+00  9.000E+00
     -11     1     6     6     0     0 -1.074653894E+01 -1.665520565E+01  5.031334843E+00  2.044989743E+01  0.000000000E+00  0.00000E+00  9.000E+00
      12     1     6     6     0     0  2.411187651E+00  6.096211926E+01 -8.200763758E+01  1.022127508E+02  2.132480600E-06  0.00000E+00  9.000E+00
      13     1     5     5     0     0  4.047224544E+01 -1.613865043E+01 -3.710828763E+01  5.723184166E+01  0.000000000E+00  0.00000E+00  9.000E+00
     -14     1     5     5     0     0 -8.556295555E+00  7.476996370E+00 -1.337659796E+02  1.342477299E+02  2.697398305E-06  0.00000E+00  9.000E+00
       5     1     4     4   514     0  3.635003836E+01 -7.078788853E+01 -4.723241647E+01  9.265912862E+01  4.750000000E+00  0.00000E+00  9.000E+00
      -5     1     3     3     0   512 -3.067554069E+01  1.283245025E+01 -1.490283392E+01  3.674666699E+01  4.750000000E+00  0.00000E+00  9.000E+00
      21     1     1     2   501   511  3.496514672E+00  1.225375326E+01 -3.460355409E+00  1.320432291E+01  7.300048300E-08  0.00000E+00  9.000E+00
      21     1     3     3   512   501 -3.368016068E+01  1.048719936E+01 -1.236866613E+01  3.738072332E+01  3.371747881E-07  0.00000E+00  9.000E+00
      21     1     4     4   507   514  9.285497421E-01 -4.307739081E-01 -1.961967485E-02  1.023794762E+00  2.770586830E-08  0.00000E+00  9.000E+00
#rwgt            1           6  0.64201451935985188                1     7802700           0       11110           0
<weights>
0.14500E+02
</weights>
</event>
<event>
     13  10001  1.35503E+01  6.75308E+01 -1.00000E+00  1.32015E-01
      21    -1     0     0   507   512  0.000000000E+00  0.000000000E+00  2.902395229E+02  2.902395229E+02  0.000000000E+00  0.00000E+00  9.000E+00
      21    -1     0     0   501   502  0.000000000E+00  0.000000000E+00 -2.541437867E+02  2.541437867E+02  0.000000000E+00  0.00000E+00  9.000E+00
      -6     2     1     2     0   502  7.517905297E+01 -3.493352202E+01 -1.066598787E+02  2.190098391E+02  1.723854371E+02  0.00000E+00  9.000E+00
       6     2     1     2   507     0 -1.376357504E+02  9.251386247E+00  8.871711391E+01  2.388831778E+02  1.736814855E+02  0.00000E+00  9.000E+00
     -24     2     3     3     0     0  8.968313548E+01  2.814419654E+01 -9.350953307E+01  1.527930657E+02  7.593765576E+01  0.00000E+00  9.000E+00
      24     2     4     4     0     0 -1.289185325E+02  2.818103750E-01  1.580033069E+00  1.507249307E+02  7.807330389E+01  0.00000E+00  9.000E+00
     -11     1     6     6     0     0 -2.196695417E+01 -1.168419672E+01  3.042902143E+01  3.930639736E+01  0.000000000E+00  0.00000E+00  9.000E+00
      12     1     6     6     0     0 -1.069515783E+02  1.196600710E+01 -2.884898836E+01  1.114185333E+02  2.500555153E-06  0.00000E+00  9.000E+00
      13     1     5     5     0     0  3.986021810E+01 -9.291767941E+00 -7.874727092E+01  8.874855838E+01  0.000000000E+00  0.00000E+00  9.000E+00
     -14     1     5     5     0     0  4.982291739E+01  3.743596448E+01 -1.476226215E+01  6.404450731E+01  1.776178411E-06  0.00000E+00  9.000E+00
       5     1     4     4   507     0 -8.717217880E+00  8.969575871E+00  8.713708084E+01  8.815824712E+01  4.750000000E+00  0.00000E+00  9.000E+00
      -5     1     3     3     0   502 -1.450408252E+01 -6.307771856E+01 -1.315034560E+01  6.621677338E+01  4.750000000E+00  0.00000E+00  9.000E+00
      21     1     1     2   501   512  6.245669742E+01  2.568213578E+01  5.403850102E+01  8.649029277E+01  9.536743164E-07  0.00000E+00  9.000E+00
#rwgt            2         113   8.3157118973053130                1     7807389           0           1           0
<weights>
0.13550E+02
</weights>
</event>
<event>
     14  10001  1.35503E+01  1.90201E+01 -1.00000E+00  3.18508E-01
      21    -1     0     0   511   501  0.000000000E+00  0.000000000E+00  9.326113371E+02  9.326113371E+02  0.000000000E+00  0.00000E+00  9.000E+00
      21    -1     0     0   507   502  0.000000000E+00  0.000000000E+00 -1.041167755E+02  1.041167755E+02  0.000000000E+00  0.00000E+00  9.000E+00
      -6     2     1     2     0   501 -4.903748409E+01 -8.512437910E+01  7.395918490E+02  7.668406295E+02  1.771937166E+02  0.00000E+00  9.000E+00
       6     2     1     2   507     0  3.170472434E+01  7.729233903E+01  1.247293273E+02  2.293250408E+02  1.733588014E+02  0.00000E+00  9.000E+00
     -24     2     3     3     0     0  1.160267322E+01  1.620153869E+00  1.836294346E+02  2.008226882E+02  8.045331498E+01  0.00000E+00  9.000E+00
      24     2     4     4     0     0  8.235713985E+01  8.219536469E+01  1.060791662E+02  1.749182593E+02  7.618944471E+01  0.00000E+00  9.000E+00
     -11     1     6     6     0     0  2.860164118E+01 -3.578894974E+00  7.530925951E-01  2.883451951E+01  0.000000000E+00  0.00000E+00  9.000E+00
      12     1     6     6     0     0  5.375549867E+01  8.577425966E+01  1.053260736E+02  1.460837398E+02  3.568322551E-06  0.00000E+00  9.000E+00
      13     1     5     5     0     0  3.942154593E+01  3.182394599E+00  1.583058564E+02  1.631714745E+02  0.000000000E+00  0.00000E+00  9.000E+00
     -14     1     5     5     0     0 -2.781887271E+01 -1.562240731E+00  2.532357820E+01  3.765121363E+01  4.768371582E-07  0.00000E+00  9.000E+00
       5     1     4     4   507     0 -5.065241551E+01 -4.903025656E+00  1.865016113E+01  5.440678145E+01  4.750000000E+00  0.00000E+00  9.000E+00
      -5     1     3     3     0   513 -5.526101725E+01 -7.620649972E+01  5.023153020E+02  5.110816332E+02  4.750000000E+00  0.00000E+00  9.000E+00
      21     1     1     2   511   502  1.733275976E+01  7.832040072E+00 -3.582661471E+01  4.056244241E+01  2.078484985E-06  0.00000E+00  9.000E+00
      21     1     3     3   513   501 -5.379140055E+00 -1.053803325E+01  5.364711233E+01  5.493630816E+01  9.536743164E-07  0.00000E+00  9.000E+00
#rwgt            1          17   54.327858038769691                1     7807588           0         111           0
<weights>
0.12978E+02
</weights>
</event>
<event>
     15  10001 -1.35503E+01  1.21581E+01 -1.00000E+00  1.83571E-01
      21    -1     0     0   502   511  0.000000000E+00  0.000000000E+00  6.830200898E+01  6.830200898E+01  0.000000000E+00  0.00000E+00  9.000E+00
      21    -1     0     0   507   502  0.000000000E+00  0.000000000E+00 -9.164299586E+02  9.164299586E+02  0.000000000E+00  0.00000E+00  9.000E+00
      -6     2     1     2     0   501  7.689553123E+01 -4.498566664E+01 -3.185275407E+02  3.734070024E+02  1.733100180E+02  0.00000E+00  9.000E+00
       6     2     1     2   507     0 -6.860711972E+01  5.388070078E+01 -5.533926419E+02  5.846062497E+02  1.670658082E+02  0.00000E+00  9.000E+00
     -24     2     3     3     0     0  9.347359712E+00  3.556458990E+01 -1.434980105E+02  1.684866370E+02  8.027362350E+01  0.00000E+00  9.000E+00
      24     2     4     4     0     0 -9.131418520E+01  4.491297428E+01 -2.749692083E+02  3.040935594E+02  8.068067737E+01  0.00000E+00  9.000E+00
     -11     1     6     6     0     0 -2.330330114E+01  5.016879016E+01 -7.782269994E+01  9.547944269E+01  0.000000000E+00  0.00000E+00  9.000E+00
      12     1     6     6     0     0 -6.801088405E+01 -5.255815874E+00 -1.971465083E+02  2.086141167E+02  2.697398305E-06  0.00000E+00  9.000E+00
      13     1     5     5     0     0 -5.950344201E+00  3.305593698E+01 -1.138069753E+01  3.546296438E+01  0.000000000E+00  0.00000E+00  9.000E+00
     -14     1     5     5     0     0  1.529770391E+01  2.508652919E+00 -1.321173130E+02  1.330236726E+02  2.697398305E-06  0.00000E+00  9.000E+00
       5     1     4     4   513     0  2.325688673E+01  1.047308213E+01 -2.774011295E+02  2.786117682E+02  4.750000000E+00  0.00000E+00  9.000E+00
      -5     1     3     3     0   512  4.000093685E+01 -5.221311329E+01 -9.474437355E+01  1.154354494E+02  4.750000000E+00  0.00000E+00  9.000E+00
      21     1     3     3   512   501  2.754723467E+01 -2.833714325E+01 -8.028515668E+01  8.948491610E+01  9.536743164E-07  0.00000E+00  9.000E+00
      21     1     1     2   501   511 -8.288411502E+00 -8.895034139E+00  2.379223308E+01  2.671871540E+01  1.651812370E-06  0.00000E+00  9.000E+00
      21     1     4     4   507   513 -5.498212536E-01 -1.505355628E+00 -1.022304127E+00  1.900922067E+00  0.000000000E+00  0.00000E+00  9.000E+00
#rwgt            1          17  -15.347903555678712                1     7817950           0      110110           0
<weights>
-.14618E+02
</weights>
</event>
<event>
     15  10001  1.35503E+01  7.14220E+01 -1.00000E+00  3.37128E-01
      21    -1     0     0   511   501  0.000000000E+00  0.000000000E+00  8.956290262E+01  8.956290262E+01  0.000000000E+00  0.00000E+00  9.000E+00
       2    -1     0     0   507     0  0.000000000E+00  0.000000000E+00 -2.276099523E+03  2.276099523E+03  0.000000000E+00  0.00000E+00  9.000E+00
      -6     2     1     2     0   501  2.285625703E+02  1.110584462E+02 -1.785164157E+03  1.811341183E+03  1.719621659E+02  0.00000E+00  9.000E+00
       6     2     1     2   507     0 -1.790722058E+02 -5.956275016E+01 -4.091342438E+02  4.824787197E+02  1.725697235E+02  0.00000E+00  9.000E+00
     -24     2     3     3     0     0  1.338852265E+02  1.036262590E+02 -8.214277165E+02  8.428419508E+02  8.351889084E+01  0.00000E+00  9.000E+00
      24     2     4     4     0     0 -1.202709006E+02  2.155715222E+01 -2.514868869E+02  2.911995063E+02  8.137381536E+01  0.00000E+00  9.000E+00
     -11     1     6     6     0     0  9.975965963E+00 -4.117150335E+00 -4.057945436E+01  4.199003381E+01  0.000000000E+00  0.00000E+00  9.000E+00
      12     1     6     6     0     0 -1.302468665E+02  2.567430256E+01 -2.109074325E+02  2.492094724E+02  6.607249480E-06  0.00000E+00  9.000E+00
      13     1     5     5     0     0  5.563877623E+00  2.815289948E+01 -5.444717534E+01  6.154703393E+01  0.000000000E+00  0.00000E+00  9.000E+00
     -14     1     5     5     0     0  1.283213488E+02  7.547335956E+01 -7.669805412E+02  7.812949169E+02  1.078959322E-05  0.00000E+00  9.000E+00
       5     1     4     4   512     0 -4.883702087E+01 -3.999034064E+01 -1.145617254E+02  1.308863377E+02  4.750000000E+00  0.00000E+00  9.000E+00
      -5     1     3     3     0   514  9.134324474E+01  8.113729257E+00 -9.454551125E+02  9.499038653E+02  4.750000000E+00  0.00000E+00  9.000E+00
       2     1     1     2   511     0 -4.949036456E+01 -5.149569601E+01  7.761780264E+00  7.184252310E+01  0.000000000E+00  0.00000E+00  9.000E+00
      21     1     4     4   507   512 -9.964284332E+00 -4.112956173E+01 -4.308563142E+01  6.039287578E+01  6.743495762E-07  0.00000E+00  9.000E+00
      21     1     3     3   514   501  3.334099127E+00 -6.815421322E-01 -1.828132825E+01  1.859536715E+01  0.000000000E+00  0.00000E+00  9.000E+00
#rwgt            1           6   14.066349701444203                1     7823518           0       11011           0
<weights>
0.21478E+02
</weights>
</event>
<event>
     15  10001  1.35503E+01  6.62461E+01 -1.00000E+00  3.15304E-01
      21    -1     0     0   507   501  0.000000000E+00  0.000000000E+00  2.072475772E+02  2.072475772E+02  0.000000000E+00  0.00000E+00  9.000E+00
      21    -1     0     0   501   512  0.000000000E+00  0.000000000E+00 -1.176806554E+03  1.176806554E+03  0.000000000E+00  0.00000E+00  9.000E+00
      -6     2     1     2     0   502  9.178041671E+01 -1.649128895E+00 -9.981733772E+02  1.016925491E+03  1.713505172E+02  0.00000E+00  9.000E+00
       6     2     1     2   507     0 -1.200330588E+02  6.156854025E+01 -8.293909297E+01  2.373876309E+02  1.768484487E+02  0.00000E+00  9.000E+00
     -24     2     3     3     0     0 -1.867700300E+01 -2.853164073E+00 -4.035468577E+02  4.118576880E+02  8.012314114E+01  0.00000E+00  9.000E+00
      24     2     4     4     0     0 -8.922094542E+01  1.100758415E+02 -5.240049630E+01  1.716305930E+02  8.145047866E+01  0.00000E+00  9.000E+00
     -11     1     6     6     0     0 -4.157274982E+01  1.576021143E+01  1.426265201E+01  4.669155206E+01  0.000000000E+00  0.00000E+00  9.000E+00
      12     1     6     6     0     0 -4.764819560E+01  9.431563004E+01 -6.666314831E+01  1.249390410E+02  3.568322551E-06  0.00000E+00  9.000E+00
      13     1     5     5     0     0 -1.287219313E+01  3.097312716E+01 -8.363593208E+01  9.011102650E+01  0.000000000E+00  0.00000E+00  9.000E+00
     -14     1     5     5     0     0 -5.804809877E+00 -3.382629124E+01 -3.199109257E+02  3.217466615E+02  6.607249480E-06  0.00000E+00  9.000E+00
       5     1     4     4   513     0 -2.635434849E+01 -4.563418938E+01 -2.825541510E+01  5.998301349E+01  4.750000000E+00  0.00000E+00  9.000E+00
      -5     1     3     3     0   511  1.104024931E+02  2.576253335E+00 -5.882864526E+02  5.985807049E+02  4.750000000E+00  0.00000E+00  9.000E+00
      21     1     1     2   502   512  2.825264211E+01 -5.991941136E+01  1.115534930E+02  1.297410091E+02  7.864199878E-06  0.00000E+00  9.000E+00
      21     1     3     3   511   502  5.492659485E-02 -1.372218158E+00 -6.340066903E+00  6.487098576E+00  1.192092896E-07  0.00000E+00  9.000E+00
      21     1     4     4   507   513 -4.457764907E+00 -2.873111829E+00 -2.283181567E+00  5.774024386E+00  1.074538015E-07  0.00000E+00  9.000E+00
#rwgt            1          17   27.095214038539783                1     7831421           0       11110           0
<weights>
0.15922E+02
</weights>
</event>
<event>
     15  10001 -1.35503E+01  5.61966E+00 -1.00000E+00  2.31323E-01
       2    -1     0     0   502     0  0.000000000E+00  0.000000000E+00  8.190536768E+02  8.190536768E+02  0.000000000E+00  0.00000E+00  9.000E+00
      21    -1     0     0   507   502  0.000000000E+00  0.000000000E+00 -3.922964938E+01  3.922964938E+01  0.000000000E+00  0.00000E+00  9.000E+00
      -6     2     1     2     0   501 -6.946248337E+01 -4.768841030E+00  3.050351567E+02  3.573354781E+02  1.726105983E+02  0.00000E+00  9.000E+00
       6     2     1     2   507     0  6.444578462E+01  2.236397341E+00  4.407850863E+02  4.664828239E+02  1.384069075E+02  0.00000E+00  9.000E+00
     -24     2     3     3     0     0 -1.695700167E+00  1.632937324E+01  5.621854570E+01  9.846651246E+01  7.915557697E+01  0.00000E+00  9.000E+00
      24     2     4     4     0     0  6.264250979E+01  1.930155747E-01  4.459443412E+02  4.574536160E+02  8.045703222E+01  0.00000E+00  9.000E+00
     -11     1     6     6     0     0  2.351317863E+01 -3.201993548E+00  3.797013377E+02  3.804421483E+02  0.000000000E+00  0.00000E+00  9.000E+00
      12     1     6     6     0     0  3.912933116E+01  3.395009123E+00  6.624300347E+01  7.701146767E+01  9.536743164E-07  0.00000E+00  9.000E+00
      13     1     5     5     0     0  1.462417957E+01 -2.817128399E+01  3.263384405E+01  4.552423143E+01  0.000000000E+00  0.00000E+00  9.000E+00
     -14     1     5     5     0     0 -1.631987973E+01  4.450065723E+01  2.358470165E+01  5.294228103E+01  2.078484985E-06  0.00000E+00  9.000E+00
       5     1     4     4   511     0  2.822084581E+00  2.710261072E+00 -4.631280538E+00  7.702008562E+00  4.750000000E+00  0.00000E+00  9.000E+00
      -5     1     3     3     0   512 -4.171381902E+01 -1.340212396E+01  1.443192042E+02  1.508981605E+02  4.750000000E+00  0.00000E+00  9.000E+00
       2     1     1     2   501     0  5.016698750E+00  2.532443689E+00  3.400378438E+01  3.446502415E+01  0.000000000E+00  0.00000E+00  9.000E+00
      21     1     3     3   512   501 -2.605296418E+01 -7.696090307E+00  1.044974068E+02  1.079708052E+02  1.348699152E-06  0.00000E+00  9.000E+00
      21     1     4     4   507   511 -1.018809754E+00 -6.668793060E-01 -5.279743281E-01  1.327199387E+00  3.871435242E-08  0.00000E+00  9.000E+00
#rwgt            1          17  -166.84207999525688                1     7838767           0       11110           0
<weights>
-.19470E+02
</weights>
</event>
<event>
     13  10001  1.35503E+01  1.69198E+02 -1.00000E+00  1.14358E-01
      21    -1     0     0   507   511  0.000000000E+00  0.000000000E+00  1.549025662E+02  1.549025662E+02  0.000000000E+00  0.00000E+00  9.000E+00
      21    -1     0     0   501   502  0.000000000E+00  0.000000000E+00 -7.065203020E+02  7.065203020E+02  0.000000000E+00  0.00000E+00  9.000E+00
      -6     2     1     2     0   502  1.051828957E+02 -1.145713564E+02 -3.841300328E+02  4.489591140E+02  1.726799546E+02  0.00000E+00  9.000E+00
       6     2     1     2   507     0  5.466299564E+01  5.909722164E+01 -1.467506837E+02  2.419993516E+02  1.747781402E+02  0.00000E+00  9.000E+00
     -24     2     3     3     0     0  5.289455830E+01 -1.881111624E+01 -2.851832660E+02  3.015918212E+02  8.047632607E+01  0.00000E+00  9.000E+00
      24     2     4     4     0     0  6.491947096E+01 -2.167071349E+01 -5.436000960E+01  1.187627750E+02  8.040788863E+01  0.00000E+00  9.000E+00
     -11     1     6     6     0     0  6.202184582E+00  9.961279032E+00 -5.062012842E+01  5.196240540E+01  0.000000000E+00  0.00000E+00  9.000E+00
      12     1     6     6     0     0  5.871728638E+01 -3.163199252E+01 -3.739881180E+00  6.680036962E+01  1.429890458E-06  0.00000E+00  9.000E+00
      13     1     5     5     0     0  3.295586322E+01  2.633577499E+01 -7.871573740E+01  8.930749845E+01  0.000000000E+00  0.00000E+00  9.000E+00
     -14     1     5     5     0     0  1.993869509E+01 -4.514689123E+01 -2.064675286E+02  2.122843228E+02  3.814697266E-06  0.00000E+00  9.000E+00
       5     1     4     4   507     0 -1.025647532E+01  8.076793513E+01 -9.239067412E+01  1.232365765E+02  4.750000000E+00  0.00000E+00  9.000E+00
      -5     1     3     3     0   502  5.228833744E+01 -9.576024011E+01 -9.894676680E+01  1.473672928E+02  4.750000000E+00  0.00000E+00  9.000E+00
      21     1     1     2   501   511 -1.598458914E+02  5.547413471E+01 -2.073701929E+01  1.704644027E+02  1.168007728E-06  0.00000E+00  9.000E+00
#rwgt            2         113   2.6329279532961505                1     7846034           0           1           0
<weights>
0.13550E+02
</weights>
</event>
<event>
     15  10001  1.35503E+01  4.13404E+01 -1.00000E+00  1.69432E-01
       2    -1     0     0   502     0  0.000000000E+00  0.000000000E+00  2.417947163E+03  2.417947163E+03  0.000000000E+00  0.00000E+00  9.000E+00
      21    -1     0     0   507   502  0.000000000E+00  0.000000000E+00 -2.296154391E+02  2.296154391E+02  0.000000000E+00  0.00000E+00  9.000E+00
      -6     2     1     2     0   501 -5.319975031E+01  1.415975443E+02 -1.267649223E+02  2.665007129E+02  1.790899397E+02  0.00000E+00  9.000E+00
       6     2     1     2   507     0  2.418452722E+01 -1.710448759E+02  4.184697283E+02  4.839844807E+02  1.711222460E+02  0.00000E+00  9.000E+00
     -24     2     3     3     0     0 -4.218881952E+01  1.636837905E+02 -7.547965028E+01  2.014751435E+02  7.951588563E+01  0.00000E+00  9.000E+00
      24     2     4     4     0     0 -1.425717902E+00 -4.256616759E+01  8.867996226E+01  1.272693992E+02  8.074312963E+01  0.00000E+00  9.000E+00
     -11     1     6     6     0     0 -1.414437602E+01 -6.043895209E+01  8.464474576E+01  1.049650575E+02  0.000000000E+00  0.00000E+00  9.000E+00
      12     1     6     6     0     0  1.271865812E+01  1.787278450E+01  4.035216505E+00  2.230434179E+01  7.633118912E-07  0.00000E+00  9.000E+00
      13     1     5     5     0     0 -4.263485366E+01  1.320625310E+02 -9.130012353E+01  1.661142842E+02  0.000000000E+00  0.00000E+00  9.000E+00
     -14     1     5     5     0     0  4.460341412E-01  3.162125946E+01  1.582047325E+01  3.536085930E+01  1.105501472E-06  0.00000E+00  9.000E+00
       5     1     4     4   512     0  1.595069963E+01 -1.207802958E+02  3.127063252E+02  3.356338973E+02  4.750000000E+00  0.00000E+00  9.000E+00
      -5     1     3     3     0   511 -2.114423877E+01 -2.001308306E+01 -4.023179837E+01  4.988749770E+01  4.750000000E+00  0.00000E+00  9.000E+00
       2     1     1     2   501     0  2.901522309E+01  2.944733160E+01  1.896626918E+03  1.897077409E+03  0.000000000E+00  0.00000E+00  9.000E+00
      21     1     3     3   511   501  1.013330798E+01 -2.073163185E+00 -1.105347367E+01  1.513807175E+01  5.057621821E-07  0.00000E+00  9.000E+00
      21     1     4     4   507   512  9.659545491E+00 -7.698412438E+00  1.708344087E+01  2.108118415E+01  2.384185791E-07  0.00000E+00  9.000E+00
#rwgt            1          17   22.956502018301212                1     7850985           0       11110           0
<weights>
0.12449E+02
</weights>
</event>
<event>
     15  10001  1.35503E+01  1.85471E+01 -1.00000E+00  5.26941E-01
      21    -1     0     0   511   501  0.000000000E+00  0.000000000E+00  2.928179184E+02  2.928179184E+02  0.000000000E+00  0.00000E+00  9.000E+00
      21    -1     0     0   501   502  0.000000000E+00  0.000000000E+00 -4.956195571E+02  4.956195571E+02  0.000000000E+00  0.00000E+00  9.000E+00
      -6     2     1     2     0   502 -4.944575751E+01  7.659992368E+01 -3.768408722E+02  4.244869980E+02  1.728228494E+02  0.00000E+00  9.000E+00
       6     2     1     2   507     0  5.453914968E+01 -9.443390624E+01  2.282828496E+02  3.066236647E+02  1.732418277E+02  0.00000E+00  9.000E+00
     -24     2     3     3     0     0 -9.508315207E+01  6.898661252E+01 -3.446388908E+02  3.673313973E+02  4.854309296E+01  0.00000E+00  9.000E+00
      24     2     4     4     0     0 -1.248111384E+00 -8.619245255E+01  9.101418659E+01  1.575121748E+02  9.537193720E+01  0.00000E+00  9.000E+00
     -11     1     6     6     0     0 -2.018275335E+01  1.281606212E+01  3.442099327E+01  4.190942327E+01  0.000000000E+00  0.00000E+00  9.000E+00
      12     1     6     6     0     0  1.893464197E+01 -9.900851466E+01  5.659319332E+01  1.156027516E+02  4.264961200E-06  0.00000E+00  9.000E+00
      13     1     5     5     0     0 -1.417176759E+01 -7.020016785E+00 -3.546368907E+01  3.883030871E+01  0.000000000E+00  0.00000E+00  9.000E+00
     -14     1     5     5     0     0 -8.091138448E+01  7.600662930E+01 -3.091752017E+02  3.285010886E+02  0.000000000E+00  0.00000E+00  9.000E+00
       5     1     4     4   512     0  5.658175652E+01 -8.268097957E+00  1.360663317E+02  1.476701247E+02  4.750000000E+00  0.00000E+00  9.000E+00
      -5     1     3     3     0   513  4.513195983E+01  6.310131665E+00 -3.138800088E+01  5.553810097E+01  4.750000000E+00  0.00000E+00  9.000E+00
      21     1     1     2   511   507 -5.093392173E+00  1.783398255E+01 -5.424361614E+01  5.732681283E+01  0.000000000E+00  0.00000E+00  9.000E+00
      21     1     4     4   507   512 -7.944954541E-01  2.664426351E-02  1.202331261E+00  1.441365118E+00  2.107342426E-08  0.00000E+00  9.000E+00
      21     1     3     3   513   502  5.054347255E-01  1.303179499E+00 -8.139804925E-01  1.617499710E+00  2.580956828E-08  0.00000E+00  9.000E+00
#rwgt            1          17   175.89912467790526                1     7854911           0       11011           0
<weights>
0.15010E+02
</weights>
</event>
<event>
     15  10001  1.35503E+01  4.88131E+01 -1.00000E+00  2.79017E-01
      21    -1     0     0   512   501  0.000000000E+00  0.000000000E+00  1.283303682E+03  1.283303682E+03  0.000000000E+00  0.00000E+00  9.000E+00
      21    -1     0     0   501   502  0.000000000E+00  0.000000000E+00 -1.028555450E+02  1.028555450E+02  0.000000000E+00  0.00000E+00  9.000E+00
      -6     2     1     2     0   502  1.654719274E+02 -1.136053238E+01  1.626839665E+02  2.726553690E+02  1.427054899E+02  0.00000E+00  9.000E+00
       6     2     1     2   507     0 -1.942166772E+02  5.081247432E+01  1.029838518E+03  1.063219603E+03  1.719491980E+02  0.00000E+00  9.000E+00
     -24     2     3     3     0     0  1.433380521E+02  3.262436856E+01  1.278512567E+02  2.117291400E+02  8.290439257E+01  0.00000E+00  9.000E+00
      24     2     4     4     0     0 -2.657534509E+01  2.293209149E+01  4.753221176E+02  4.831923850E+02  7.944580275E+01  0.00000E+00  9.000E+00
     -11     1     6     6     0     0 -4.890032655E+01  3.498684415E+01  3.702451393E+02  3.750957003E+02  0.000000000E+00  0.00000E+00  9.000E+00
      12     1     6     6     0     0  2.232498146E+01 -1.205475266E+01  1.050769783E+02  1.080966846E+02  3.303624740E-06  0.00000E+00  9.000E+00
      13     1     5     5     0     0  7.696651728E+01  2.807152467E+01  1.192033033E+02  1.446419123E+02  0.000000000E+00  0.00000E+00  9.000E+00
     -14     1     5     5     0     0  6.637153484E+01  4.552843890E+00  8.647953323E+00  6.708722771E+01  2.463338175E-06  0.00000E+00  9.000E+00
       5     1     4     4   514     0 -1.507311357E+02  2.614379005E+01  5.039741491E+02  5.267028370E+02  4.750000000E+00  0.00000E+00  9.000E+00
      -5     1     3     3     0   511  1.546549398E+01 -3.491773332E+01  2.431475131E+01  4.552141513E+01  4.750000000E+00  0.00000E+00  9.000E+00
      21     1     1     2   512   507  2.874474984E+01 -3.945194194E+01 -1.207434765E+01  5.028425437E+01  2.092114541E-06  0.00000E+00  9.000E+00
      21     1     3     3   511   502  6.668381279E+00 -9.067167620E+00  1.051795854E+01  1.540481384E+01  1.685873940E-07  0.00000E+00  9.000E+00
      21     1     4     4   507   514 -1.691019642E+01  1.736592785E+00  5.054225093E+01  5.332438116E+01  6.743495762E-07  0.00000E+00  9.000E+00
#rwgt            1          17   15.024399156354976                1     7863249           0       11110           0
<weights>
0.22514E+02
</weights>
</event>
<event>
     15  10001  1.35503E+01  3.64250E+01 -1.00000E+00  2.32818E-01
      21    -1     0     0   507   501  0.000000000E+00  0.000000000E+00  5.962817138E+02  5.962817138E+02  0.000000000E+00  0.00000E+00  9.000E+00
      21    -1     0     0   511   502  0.000000000E+00  0.000000000E+00 -2.483917534E+02  2.483917534E+02  0.000000000E+00  0.00000E+00  9.000E+00
      -6     2     1     2     0   502 -6.937409346E+01  7.309825221E+01 -2.159401300E+01  1.978002580E+02  1.688268976E+02  0.00000E+00  9.000E+00
       6     2     1     2   507     0  3.960556221E+01 -9.408902174E+01  4.858261449E+02  5.249622634E+02  1.706956073E+02  0.00000E+00  9.000E+00
     -24     2     3     3     0     0 -3.018560841E+01  1.936944022E+01 -6.873702231E+01  1.123032521E+02  8.124589850E+01  0.00000E+00  9.000E+00
      24     2     4     4     0     0  7.160351684E+01 -1.013952827E+02  3.030376862E+02  3.387250651E+02  8.657230189E+01  0.00000E+00  9.000E+00
     -11     1     6     6     0     0  8.118957126E+01 -5.742019940E+01  1.564115783E+02  1.853467227E+02  0.000000000E+00  0.00000E+00  9.000E+00
      12     1     6     6     0     0 -9.586054420E+00 -4.397508332E+01  1.466261079E+02  1.533783424E+02  3.303624740E-06  0.00000E+00  9.000E+00
      13     1     5     5     0     0 -3.331656965E+01  4.843653339E+01 -5.273499255E+01  7.897512912E+01  0.000000000E+00  0.00000E+00  9.000E+00
     -14     1     5     5     0     0  3.130961237E+00 -2.906709317E+01 -1.600202976E+01  3.332812297E+01  8.259061849E-07  0.00000E+00  9.000E+00
       5     1     4     4   512     0 -1.175948817E+01 -1.636190825E+00  4.951930132E+01  5.114378149E+01  4.750000000E+00  0.00000E+00  9.000E+00
      -5     1     3     3     0   513 -3.640627481E+01  5.226990630E+01  5.010238647E+01  8.118110359E+01  4.750000000E+00  0.00000E+00  9.000E+00
      21     1     1     2   511   501  2.976853125E+01  2.099076953E+01 -1.163421715E+02  1.219109459E+02  2.697398305E-06  0.00000E+00  9.000E+00
      21     1     4     4   507   512 -2.023846646E+01  8.942451805E+00  1.332691574E+02  1.350934168E+02  0.000000000E+00  0.00000E+00  9.000E+00
      21     1     3     3   513   502 -2.782210232E+00  1.458905691E+00 -2.959377159E+00  4.315902311E+00  5.960464478E-08  0.00000E+00  9.000E+00
#rwgt            1          17   27.943228227655808                1     7869889           0       11011           0
<weights>
0.13210E+02
</weights>
</event>
<event>
     15  10001  1.35503E+01  4.94739E+01 -1.00000E+00  4.98340E-01
      21    -1     0     0   512   501  0.000000000E+00  0.000000000E+00  3.245261354E+02  3.245261354E+02  0.000000000E+00  0.00000E+00  9.000E+00
      21    -1     0     0   501   502  0.000000000E+00  0.000000000E+00 -2.751513535E+02  2.751513535E+02  0.000000000E+00  0.00000E+00  9.000E+00
      -6     2     1     2     0   502  1.433926645E+02 -4.098721320E+01 -1.061076358E+02  2.505411125E+02  1.710865594E+02  0.00000E+00  9.000E+00
       6     2     1     2   507     0 -9.458709632E+01  3.288254821E+01  2.000104535E+02  2.825750134E+02  1.726744796E+02  0.00000E+00  9.000E+00
     -24     2     3     3     0     0  5.332273510E+01 -8.055841940E+01 -8.056577947E+01  1.487066100E+02  7.930849906E+01  0.00000E+00  9.000E+00
      24     2     4     4     0     0 -2.428208580E+01  7.964369488E+00  2.149959921E+01  8.801057647E+01  8.142836074E+01  0.00000E+00  9.000E+00
     -11     1     6     6     0     0  2.949214257E+01 -4.487138796E+00  3.956281929E+00  3.009274090E+01  0.000000000E+00  0.00000E+00  9.000E+00
      12     1     6     6     0     0 -5.377422838E+01  1.245150828E+01  1.754331728E+01  5.791783557E+01  1.168007728E-06  0.00000E+00  9.000E+00
      13     1     5     5     0     0 -1.994510257E+01 -2.926103354E+01 -1.973191703E+01  4.053842313E+01  0.000000000E+00  0.00000E+00  9.000E+00
     -14     1     5     5     0     0  7.326783767E+01 -5.129738586E+01 -6.083386244E+01  1.081681869E+02  3.015782986E-06  0.00000E+00  9.000E+00
       5     1     4     4   511     0 -7.158498549E+01  2.526622699E+01  1.752690157E+02  1.910617249E+02  4.750000000E+00  0.00000E+00  9.000E+00
      -5     1     3     3     0   514  8.170283841E+01  3.571046286E+01 -2.200316113E+01  9.196353931E+01  4.750000000E+00  0.00000E+00  9.000E+00
      21     1     1     2   512   507 -4.880556817E+01  8.104664995E+00 -4.452803581E+01  6.656136306E+01  1.261592536E-06  0.00000E+00  9.000E+00
      21     1     4     4   507   511  1.279974972E+00 -3.480482682E-01  3.241838654E+00  3.502712004E+00  1.115100797E-07  0.00000E+00  9.000E+00
      21     1     3     3   514   502  8.367090974E+00  3.860743336E+00 -3.538695229E+00  9.870963195E+00  0.000000000E+00  0.00000E+00  9.000E+00
#rwgt            1          17   11.098310190862062                1     7878700           0       11011           0
<weights>
0.15617E+02
</weights>
</event>
<event>
     14  10001  1.35503E+01  6.75010E+01 -1.00000E+00  7.34385E-01
       3    -1     0     0   511     0  0.000000000E+00  0.000000000E+00  4.624711794E+03  4.624711794E+03  0.000000000E+00  0.00000E+00  9.000E+00
      -3    -1     0     0     0   502  0.000000000E+00  0.000000000E+00 -1.379473950E+01  1.379473950E+01  0.000000000E+00  0.00000E+00  9.000E+00
      -6     2     1     2     0   502 -7.603490942E+01  1.462955404E+01  1.264675395E+03  1.278636039E+03  1.717874699E+02  0.00000E+00  9.000E+00
       6     2     1     2   507     0  5.550354946E+01  4.967317975E+01  3.054968243E+03  3.060877883E+03  1.749124966E+02  0.00000E+00  9.000E+00
     -24     2     3     3     0     0 -6.696548540E+01 -2.020326853E+01  1.197728954E+03  1.202478515E+03  8.066836008E+01  0.00000E+00  9.000E+00
      24     2     4     4     0     0  1.008096884E+02  1.985951223E+01  2.212521382E+03  2.216399822E+03  8.136528885E+01  0.00000E+00  9.000E+00
     -11     1     6     6     0     0  2.440840130E+01  2.584552279E+01  2.653225801E+02  2.676935423E+02  0.000000000E+00  0.00000E+00  9.000E+00
      12     1     6     6     0     0  7.640128713E+01 -5.986010562E+00  1.947198802E+03  1.948706280E+03  2.157918644E-05  0.00000E+00  9.000E+00
      13     1     5     5     0     0 -7.892031401E+01  1.131666489E+00  7.655113287E+02  7.695695492E+02  0.000000000E+00  0.00000E+00  9.000E+00
     -14     1     5     5     0     0  1.195482860E+01 -2.133493502E+01  4.322176251E+02  4.329089660E+02  5.394796609E-06  0.00000E+00  9.000E+00
       5     1     4     4   512     0 -3.522425767E+01  1.193685836E+01  4.885960697E+02  4.900325691E+02  4.750000000E+00  0.00000E+00  9.000E+00
      -5     1     3     3     0   502 -9.069424013E+00  3.483282257E+01  6.694644085E+01  7.615752374E+01  4.750000000E+00  0.00000E+00  9.000E+00
      21     1     1     2   511   507  2.053135995E+01 -6.430273378E+01  2.912734178E+02  2.989926123E+02  7.629394531E-06  0.00000E+00  9.000E+00
      21     1     4     4   507   512 -1.008188130E+01  1.787680915E+01  3.538507906E+02  3.544454918E+02  8.529922400E-06  0.00000E+00  9.000E+00
#rwgt            1          16  0.17986776581060243                1     7887919           0         110           0
<weights>
0.72248E+01
</weights>
</event>
<event>
     15  10001  1.35503E+01  1.24668E+01 -1.00000E+00  2.99273E-01
      21    -1     0     0   507   512  0.000000000E+00  0.000000000E+00  4.364010683E+02  4.364010683E+02  0.000000000E+00  0.00000E+00  9.000E+00
      21    -1     0     0   501   502  0.000000000E+00  0.000000000E+00 -7.796007293E+01  7.796007293E+01  0.000000000E+00  0.00000E+00  9.000E+00
      -6     2     1     2     0   502  2.072844770E+01  1.439101324E+01  1.269285078E+02  2.153210392E+02  1.720916443E+02  0.00000E+00  9.000E+00
       6     2     1     2   507     0 -2.303724966E+01 -2.664215956E+01  2.207935222E+02  2.825987708E+02  1.728345054E+02  0.00000E+00  9.000E+00
     -24     2     3     3     0     0 -6.086112027E+00  4.947919689E+00  1.543812471E+02  1.734936939E+02  7.877163004E+01  0.00000E+00  9.000E+00
      24     2     4     4     0     0 -3.863701281E+01  4.449143589E+01  1.139352544E+02  1.507884290E+02  7.926917129E+01  0.00000E+00  9.000E+00
     -11     1     6     6     0     0 -3.732046049E+00 -3.309149308E+00 -1.125544743E+01  1.231112235E+01  0.000000000E+00  0.00000E+00  9.000E+00
      12     1     6     6     0     0 -3.490496676E+01  4.780058520E+01  1.251907018E+02  1.384773067E+02  2.697398305E-06  0.00000E+00  9.000E+00
      13     1     5     5     0     0 -3.327650277E+01 -3.794168319E+00  2.720268335E+01  4.314750666E+01  0.000000000E+00  0.00000E+00  9.000E+00
     -14     1     5     5     0     0  2.719039074E+01  8.742088008E+00  1.271785637E+02  1.303461872E+02  1.907348633E-06  0.00000E+00  9.000E+00
       5     1     4     4   511     0  1.013427086E+01 -7.046650002E+01  9.572989119E+01  1.193943283E+02  4.750000000E+00  0.00000E+00  9.000E+00
      -5     1     3     3     0   513  2.419124782E+01  1.102266427E+01 -2.778597437E+01  3.874710919E+01  4.750000000E+00  0.00000E+00  9.000E+00
      21     1     1     2   501   512  2.308801952E+00  1.225114632E+01  1.071896531E+01  1.644133115E+01  3.153981341E-07  0.00000E+00  9.000E+00
      21     1     4     4   507   511  5.465492295E+00 -6.670954307E-01  1.112837668E+01  1.241601344E+01  2.064765462E-07  0.00000E+00  9.000E+00
      21     1     3     3   513   502  2.623311915E+00 -1.579570721E+00  3.332350665E-01  3.080236140E+00  3.668985442E-08  0.00000E+00  9.000E+00
#rwgt            1          17   16.507878577508976                1     7892755           0       11011           0
<weights>
0.14046E+02
</weights>
</event>
<event>
     15  10001 -1.35503E+01  1.11531E+01 -1.00000E+00  2.23070E-01
      21    -1     0     0   502   501  0.000000000E+00  0.000000000E+00  7.685072544E+02  7.685072544E+02  0.000000000E+00  0.00000E+00  9.000E+00
       2    -1     0     0   507     0  0.000000000E+00  0.000000000E+00 -2.354038628E+03  2.354038628E+03  0.000000000E+00  0.00000E+00  9.000E+00
      -6     2     1     2     0   501  1.417323013E+02 -8.899958191E+01  6.259719952E+02  6.705875098E+02  1.727359219E+02  0.00000E+00  9.000E+00
       6     2     1     2   507     0 -1.486194841E+02  9.777212131E+01 -7.911346052E+00  2.483381257E+02  1.730956282E+02  0.00000E+00  9.000E+00
     -24     2     3     3     0     0  1.065566561E+02 -1.234200112E+02  5.385782589E+02  5.687868394E+02  8.285594497E+01  0.00000E+00  9.000E+00
      24     2     4     4     0     0 -1.725266721E+02  7.850257535E+01 -2.820697132E+01  2.077567992E+02  8.024429863E+01  0.00000E+00  9.000E+00
     -11     1     6     6     0     0 -8.330014057E+01  7.964275172E+01 -2.766637026E+01  1.185213456E+02  0.000000000E+00  0.00000E+00  9.000E+00
      12     1     6     6     0     0 -8.922653148E+01 -1.140176371E+00 -5.406010593E-01  8.923545356E+01  3.382612824E-06  0.00000E+00  9.000E+00
      13     1     5     5     0     0  5.189001506E+01 -8.696418970E+01  2.032469224E+02  2.270785226E+02  0.000000000E+00  0.00000E+00  9.000E+00
     -14     1     5     5     0     0  5.466664106E+01 -3.645582154E+01  3.353313365E+02  3.417083168E+02  1.662787988E-05  0.00000E+00  9.000E+00
       5     1     4     4   511     0  2.565712830E+01  2.023324628E+01  1.987765859E+01  3.854032043E+01  4.750000000E+00  0.00000E+00  9.000E+00
      -5     1     3     3     0   512  3.343673043E+01  3.009700709E+01  6.673165009E+01  8.061960308E+01  4.750000000E+00  0.00000E+00  9.000E+00
       2     1     1     2   502     0  6.887182859E+00 -8.772539400E+00 -2.203592022E+03  2.203620247E+03  0.000000000E+00  0.00000E+00  9.000E+00
      21     1     3     3   512   501  1.738914702E+00  4.323422236E+00  2.066208618E+01  2.118106724E+01  6.743495762E-07  0.00000E+00  9.000E+00
      21     1     4     4   507   511 -1.749940371E+00 -9.637003203E-01  4.179666802E-01  2.041006064E+00  3.071953077E-08  0.00000E+00  9.000E+00
#rwgt            1          17  -20.563106410485098                1     7903862           0       11110           0
<weights>
-.95339E+01
</weights>
</event>
<event>
     14  10001  1.35503E+01  1.21696E+02 -1.00000E+00  7.52335E-01
      21    -1     0     0   502   511  0.000000000E+00  0.000000000E+00  7.878962454E+01  7.878962454E+01  0.000000000E+00  0.00000E+00  9.000E+00
      21    -1     0     0   507   502  0.000000000E+00  0.000000000E+00 -2.088623339E+03  2.088623339E+03  0.000000000E+00  0.00000E+00  9.000E+00
      -6     2     1     2     0   501 -7.519703387E+01 -9.283414554E+01 -9.925785954E+01  2.340967427E+02  1.751467664E+02  0.00000E+00  9.000E+00
       6     2     1     2   507     0 -7.121643530E+00  3.204714200E+00 -1.183063196E+03  1.195695405E+03  1.731703986E+02  0.00000E+00  9.000E+00
     -24     2     3     3     0     0 -2.941233435E+01 -1.164848875E+02 -3.704394719E+01  1.531725208E+02  8.749715815E+01  0.00000E+00  9.000E+00
      24     2     4     4     0     0 -2.988345991E+01  4.411286157E+01 -4.214214188E+02  4.325748277E+02  8.176798635E+01  0.00000E+00  9.000E+00
     -11     1     6     6     0     0 -2.354103372E+01  5.679151680E+01 -4.093923164E+02  4.139825182E+02  0.000000000E+00  0.00000E+00  9.000E+00
      12     1     6     6     0     0 -6.342426189E+00 -1.267865522E+01 -1.202910247E+01  1.859230955E+01  8.085167388E-07  0.00000E+00  9.000E+00
      13     1     5     5     0     0  1.101288048E+01 -8.431542690E-01 -2.827434830E+01  3.035511847E+01  0.000000000E+00  0.00000E+00  9.000E+00
     -14     1     5     5     0     0 -4.042521482E+01 -1.156417332E+02 -8.769598895E+00  1.228174023E+02  4.933882257E-06  0.00000E+00  9.000E+00
       5     1     4     4   513     0  2.229957317E+01 -3.641107471E+01 -6.862744978E+02  6.876178344E+02  4.750000000E+00  0.00000E+00  9.000E+00
      -5     1     3     3     0   501 -4.578469952E+01  2.365074191E+01 -6.221391235E+01  8.092422192E+01  4.750000000E+00  0.00000E+00  9.000E+00
      21     1     1     2   501   511  8.231867740E+01  8.962943134E+01 -7.275126582E+02  7.376208155E+02  1.078959322E-05  0.00000E+00  9.000E+00
      21     1     4     4   507   513  4.622432088E-01 -4.497072660E+00 -7.536727956E+01  7.550274273E+01  9.536743164E-07  0.00000E+00  9.000E+00
#rwgt            1          17   15.870244553165113                1     7913676           0         110           0
<weights>
0.15487E+02
</weights>
</event>
<event>
     15  10001 -1.35503E+01  2.32748E+01 -1.00000E+00  1.53288E-01
      21    -1     0     0   511   501  0.000000000E+00  0.000000000E+00  8.348566615E+01  8.348566615E+01  0.000000000E+00  0.00000E+00  9.000E+00
       2    -1     0     0   507     0  0.000000000E+00  0.000000000E+00 -2.831878777E+03  2.831878777E+03  0.000000000E+00  0.00000E+00  9.000E+00
      -6     2     1     2     0   501 -2.704000843E+02  1.624731168E+02 -4.414961269E+02  5.764550322E+02  1.945966464E+02  0.00000E+00  9.000E+00
       6     2     1     2   507     0  2.486164236E+02 -1.542762196E+02 -2.269119447E+03  2.294537581E+03  1.743225968E+02  0.00000E+00  9.000E+00
     -24     2     3     3     0     0 -2.162595447E+02  8.639253324E+01 -2.019013893E+02  3.184520812E+02  8.009804347E+01  0.00000E+00  9.000E+00
      24     2     4     4     0     0  1.253367314E+02 -1.027232150E+02 -1.711736855E+03  1.721249174E+03  7.996438434E+01  0.00000E+00  9.000E+00
     -11     1     6     6     0     0  1.294079134E+02 -7.210217657E+01 -1.495090824E+03  1.502411962E+03  0.000000000E+00  0.00000E+00  9.000E+00
      12     1     6     6     0     0 -4.071181930E+00 -3.062103843E+01 -2.166460317E+02  2.188372125E+02  3.814697266E-06  0.00000E+00  9.000E+00
      13     1     5     5     0     0 -1.771866796E+02  4.039101233E+01 -1.752768398E+02  2.524847003E+02  0.000000000E+00  0.00000E+00  9.000E+00
     -14     1     5     5     0     0 -3.907286514E+01  4.600152091E+01 -2.662454945E+01  6.596738095E+01  3.829569436E-06  0.00000E+00  9.000E+00
       5     1     4     4   513     0  2.449292928E+01 -9.273209274E+00 -1.055724698E+02  1.088760987E+02  4.750000000E+00  0.00000E+00  9.000E+00
      -5     1     3     3     0   512 -1.153343347E+01  2.873516034E+01 -6.504764841E+01  7.219756638E+01  4.750000000E+00  0.00000E+00  9.000E+00
      21     1     3     3   512   501 -4.260710618E+01  4.734542321E+01 -1.745470892E+02  1.858053846E+02  5.046370146E-06  0.00000E+00  9.000E+00
       2     1     1     2   511     0  2.178366072E+01 -8.196897196E+00 -3.777753712E+01  4.437183013E+01  0.000000000E+00  0.00000E+00  9.000E+00
      21     1     4     4   507   513  9.878676291E+01 -4.227979532E+01 -4.518101220E+02  4.644123081E+02  5.394796609E-06  0.00000E+00  9.000E+00
#rwgt            1           6  -10.673095119668121                1     7924309           0      110110           0
<weights>
0.95329E+01
</weights>
</event>
<event>
     13  10001  1.35503E+01  4.06398E+02 -1.00000E+00  1.01478E-01
       1    -1     0     0   507     0  0.000000000E+00  0.000000000E+00  2.040477228E+03  2.040477228E+03  0.000000000E+00  0.00000E+00  9.000E+00
      21    -1     0     0   501   502  0.000000000E+00  0.000000000E+00 -3.656626887E+02  3.656626887E+02  0.000000000E+00  0.00000E+00  9.000E+00
      -6     2     1     2     0   502 -1.485105687E+02  1.147181113E+02 -9.920008135E+01  2.725234339E+02  1.709173246E+02  0.00000E+00  9.000E+00
       6     2     1     2   507     0 -1.372028735E+02  1.742929261E+02 -3.165179599E+01  2.827813310E+02  1.725131658E+02  0.00000E+00  9.000E+00
     -24     2     3     3     0     0 -1.212528803E+02  1.482923018E+02 -9.450111012E+01  2.287644271E+02  8.191358582E+01  0.00000E+00  9.000E+00
      24     2     4     4     0     0 -2.978022122E+01  5.429844007E+01  3.466719934E+01  1.085427746E+02  8.212513030E+01  0.00000E+00  9.000E+00
     -11     1     6     6     0     0 -3.746829279E+01  6.368365925E+01  2.242092469E+00  7.392231327E+01  0.000000000E+00  0.00000E+00  9.000E+00
      12     1     6     6     0     0  7.688071573E+00 -9.385219183E+00  3.242510687E+01  3.462046128E+01  1.168007728E-06  0.00000E+00  9.000E+00
      13     1     5     5     0     0  4.893133476E+00 -5.068409013E+00 -1.161476155E+01  1.358433697E+01  0.000000000E+00  0.00000E+00  9.000E+00
     -14     1     5     5     0     0 -1.261460138E+02  1.533607108E+02 -8.288634857E+01  2.151800901E+02  4.573661350E-06  0.00000E+00  9.000E+00
       5     1     4     4   507     0 -1.074226523E+02  1.199944860E+02 -6.631899533E+01  1.742385564E+02  4.750000000E+00  0.00000E+00  9.000E+00
      -5     1     3     3     0   502 -2.725768845E+01 -3.357419053E+01 -4.698971232E+00  4.375900685E+01  4.750000000E+00  0.00000E+00  9.000E+00
       1     1     1     2   501     0  2.857134422E+02 -2.890110374E+02  1.805666417E+03  1.850835152E+03  0.000000000E+00  0.00000E+00  9.000E+00
#rwgt            2          17   1.3936977862015660                1     7929085           0           1           0
<weights>
0.13550E+02
</weights>
</event>
<event>
     13  10001  1.35503E+01  1.11804E+02 -1.00000E+00  1.21687E-01
      21    -1     0     0   507   501  0.000000000E+00  0.000000000E+00  1.176738670E+03  1.176738670E+03  0.000000000E+00  0.00000E+00  9.000E+00
      21    -1     0     0   501   511  0.000000000E+00  0.000000000E+00 -8.355280659E+02  8.355280659E+02  0.000000000E+00  0.00000E+00  9.000E+00
      -6     2     1     2     0   502  7.342053356E+01 -1.991820721E+01  1.016464239E+02  2.121454822E+02  1.699599965E+02  0.00000E+00  9.000E+00
       6     2     1     2   507     0 -9.136213277E+01 -9.043669387E+01  1.004326303E+03  1.027229794E+03  1.732163151E+02  0.00000E+00  9.000E+00
     -24     2     3     3     0     0 -1.789137508E+01 -3.328818576E+01  2.270145433E+01  9.060745648E+01  7.915902050E+01  0.00000E+00  9.000E+00
      24     2     4     4     0     0 -1.142606602E+02 -2.139500356E+01  5.828597192E+02  5.995058862E+02  7.854050305E+01  0.00000E+00  9.000E+00
     -11     1     6     6     0     0 -5.692916404E+01  2.664179225E+01  2.094087608E+02  2.186383862E+02  0.000000000E+00  0.00000E+00  9.000E+00
      12     1     6     6     0     0 -5.733149612E+01 -4.803679580E+01  3.734509584E+02  3.808675000E+02  0.000000000E+00  0.00000E+00  9.000E+00
      13     1     5     5     0     0 -2.038691382E+01  2.335143275E+01  9.045358608E+00  3.229139481E+01  0.000000000E+00  0.00000E+00  9.000E+00
     -14     1     5     5     0     0  2.495538740E+00 -5.663961850E+01  1.365609572E+01  5.831606167E+01  1.118282261E-06  0.00000E+00  9.000E+00
       5     1     4     4   507     0  2.289852739E+01 -6.904169032E+01  4.214665839E+02  4.277239079E+02  4.750000000E+00  0.00000E+00  9.000E+00
      -5     1     3     3     0   502  9.131190864E+01  1.336997855E+01  7.894496952E+01  1.215380257E+02  4.750000000E+00  0.00000E+00  9.000E+00
      21     1     1     2   502   511  1.794159921E+01  1.103549011E+02 -7.647621224E+02  7.728914601E+02  1.525878906E-05  0.00000E+00  9.000E+00
#rwgt            2         113   16.793020111611010                1     7951411           0           1           0
<weights>
0.13550E+02
</weights>
</event>
<event>
     15  10001  1.35503E+01  1.64819E+01 -1.00000E+00  5.61311E-01
      21    -1     0     0   513   501  0.000000000E+00  0.000000000E+00  4.846054183E+02  4.846054183E+02  0.000000000E+00  0.00000E+00  9.000E+00
      21    -1     0     0   501   502  0.000000000E+00  0.000000000E+00 -2.586872918E+02  2.586872918E+02  0.000000000E+00  0.00000E+00  9.000E+00
      -6     2     1     2     0   502 -1.554477574E+02 -2.131157337E+02 -4.135147651E+01  3.181436889E+02  1.729830655E+02  0.00000E+00  9.000E+00
       6     2     1     2   507     0  1.654851788E+02  2.000426757E+02  2.381574277E+02  3.916949717E+02  1.711828670E+02  0.00000E+00  9.000E+00
     -24     2     3     3     0     0 -1.258927616E+02 -1.141885693E+02  3.277693787E+01  1.905717888E+02  7.971989882E+01  0.00000E+00  9.000E+00
      24     2     4     4     0     0  1.830948044E+02  2.019388887E+02  1.996643210E+02  3.478414066E+02  8.261223225E+01  0.00000E+00  9.000E+00
     -11     1     6     6     0     0  4.182909078E+01  1.047748028E+02  6.866779040E+01  1.320708052E+02  0.000000000E+00  0.00000E+00  9.000E+00
      12     1     6     6     0     0  1.412657136E+02  9.716408592E+01  1.309965306E+02  2.157706014E+02  7.136645101E-06  0.00000E+00  9.000E+00
      13     1     5     5     0     0 -2.285577930E+01 -2.957875254E+00  3.139342344E+01  3.894461078E+01  0.000000000E+00  0.00000E+00  9.000E+00
     -14     1     5     5     0     0 -1.030369823E+02 -1.112306940E+02  1.383514431E+00  1.516271780E+02  3.906463818E-06  0.00000E+00  9.000E+00
       5     1     4     4   512     0 -3.656397710E+00 -6.616542338E-01  6.180067849E+00  8.634973605E+00  4.750000000E+00  0.00000E+00  9.000E+00
      -5     1     3     3     0   511 -2.978385619E+01 -9.788751262E+01 -7.423686120E+01  1.265018469E+02  4.750000000E+00  0.00000E+00  9.000E+00
      21     1     4     4   507   512 -1.395322784E+01 -1.234558783E+00  3.231303891E+01  3.521859148E+01  9.536743164E-07  0.00000E+00  9.000E+00
      21     1     1     2   513   507 -1.003742144E+01  1.307305800E+01  2.911217530E+01  3.345404946E+01  3.371747881E-07  0.00000E+00  9.000E+00
      21     1     3     3   511   502  2.288604129E-01 -1.039651816E+00  1.084468209E-01  1.070053129E+00  1.660786057E-08  0.00000E+00  9.000E+00
#rwgt            1          17   44.476824704740032                1     7955354           0      100111           0
<weights>
0.12631E+02
</weights>
</event>
<event>
     15  10001  1.35503E+01  3.31637E+01 -1.00000E+00  2.86577E-01
      21    -1     0     0   507   511  0.000000000E+00  0.000000000E+00  3.107727325E+02  3.107727325E+02  0.000000000E+00  0.00000E+00  9.000E+00
      21    -1     0     0   501   502  0.000000000E+00  0.000000000E+00 -5.935008004E+02  5.935008004E+02  0.000000000E+00  0.00000E+00  9.000E+00
      -6     2     1     2     0   502 -2.594037881E+01  8.680540416E+01 -1.939057856E+02  2.745314277E+02  1.719301302E+02  0.00000E+00  9.000E+00
       6     2     1     2   507     0 -6.187625117E+00 -9.502864826E+01  2.335407870E+02  3.056776382E+02  1.727101288E+02  0.00000E+00  9.000E+00
     -24     2     3     3     0     0  3.318404512E+01  9.274201532E+01 -9.490573473E+01  1.583902480E+02  7.986306981E+01  0.00000E+00  9.000E+00
      24     2     4     4     0     0  4.206082230E+01 -8.963491439E+01  2.186576073E+02  2.531728153E+02  8.050959276E+01  0.00000E+00  9.000E+00
     -11     1     6     6     0     0  4.825353564E+01 -2.323969975E+01  1.409114343E+02  1.507465411E+02  0.000000000E+00  0.00000E+00  9.000E+00
      12     1     6     6     0     0 -6.192713331E+00 -6.639521464E+01  7.774617300E+01  1.024262742E+02  2.861022949E-06  0.00000E+00  9.000E+00
      13     1     5     5     0     0  3.887607732E+01  1.281147460E+01 -5.585678418E+01  6.924928598E+01  0.000000000E+00  0.00000E+00  9.000E+00
     -14     1     5     5     0     0 -5.692032207E+00  7.993054072E+01 -3.904895055E+01  8.914096202E+01  1.651812370E-06  0.00000E+00  9.000E+00
       5     1     4     4   512     0 -4.121073163E+01 -8.890377088E+00  1.155758839E+01  4.397162216E+01  4.750000000E+00  0.00000E+00  9.000E+00
      -5     1     3     3     0   513 -5.688886317E+01 -3.297884941E+00 -9.467390118E+01  1.106025717E+02  4.750000000E+00  0.00000E+00  9.000E+00
      21     1     1     2   501   511  3.212800392E+01  8.223244101E+00 -3.223630692E+02  3.240644670E+02  7.629394531E-06  0.00000E+00  9.000E+00
      21     1     4     4   507   512 -7.037715792E+00  3.496643222E+00  3.325591352E+00  8.533200761E+00  1.519626234E-07  0.00000E+00  9.000E+00
      21     1     3     3   513   502 -2.235560754E+00 -2.638726220E+00 -4.326149687E+00  5.538608044E+00  1.332800375E-07  0.00000E+00  9.000E+00
#rwgt            1          17   21.712491084897341                1     7963283           0       11011           0
<weights>
0.19017E+02
</weights>
</event>
<event>
     15  10001  1.35503E+01  1.37996E+02 -1.00000E+00  2.23068E-01
      21    -1     0     0   512   501  0.000000000E+00  0.000000000E+00  3.419341501E+02  3.419341501E+02  0.000000000E+00  0.00000E+00  9.000E+00
      21    -1     0     0   501   502  0.000000000E+00  0.000000000E+00 -1.317504348E+03  1.317504348E+03  0.000000000E+00  0.00000E+00  9.000E+00
      -6     2     1     2     0   502 -1.469227168E+02 -6.672559857E+00 -4.933557131E+02  5.435848243E+02  1.745101539E+02  0.00000E+00  9.000E+00
       6     2     1     2   507     0  1.552769396E+01 -3.549578413E+01 -7.726303759E+02  7.943195211E+02  1.802352461E+02  0.00000E+00  9.000E+00
     -24     2     3     3     0     0 -1.384853904E+02 -1.699049553E+01 -4.984199632E+02  5.237011736E+02  7.983469916E+01  0.00000E+00  9.000E+00
      24     2     4     4     0     0 -1.450178553E+00  6.701641003E+00 -7.036974197E+02  7.082976847E+02  8.030278103E+01  0.00000E+00  9.000E+00
     -11     1     6     6     0     0  3.459717024E+00 -3.216358091E+01 -1.627581685E+02  1.659418181E+02  0.000000000E+00  0.00000E+00  9.000E+00
      12     1     6     6     0     0 -4.909895576E+00  3.886522191E+01 -5.409392512E+02  5.423558666E+02  1.321449896E-05  0.00000E+00  9.000E+00
      13     1     5     5     0     0 -1.289812254E+01 -5.339449134E+00 -5.673160720E+00  1.506837863E+01  0.000000000E+00  0.00000E+00  9.000E+00
     -14     1     5     5     0     0 -1.255872678E+02 -1.165104639E+01 -4.927468025E+02  5.086327949E+02  9.344061824E-06  0.00000E+00  9.000E+00
       5     1     4     4   511     0  2.464525171E+00 -3.286807269E+01 -5.265517383E+01  6.230179707E+01  4.750000000E+00  0.00000E+00  9.000E+00
      -5     1     3     3     0   514 -4.261102559E+00  1.278689086E+01  4.586818558E+00  1.500876335E+01  4.750000000E+00  0.00000E+00  9.000E+00
      21     1     1     2   512   507  1.313950229E+02  4.216834399E+01  2.904158913E+02  3.215341525E+02  1.375408659E-05  0.00000E+00  9.000E+00
      21     1     4     4   507   511  1.451334734E+01 -9.329352443E+00 -1.627778230E+01  2.372003930E+01  7.152557373E-07  0.00000E+00  9.000E+00
      21     1     3     3   514   502 -4.176223910E+00 -2.468955193E+00  4.774315861E-01  4.874887364E+00  2.071475800E-07  0.00000E+00  9.000E+00
#rwgt            1          17   26.014405375926465                1     7969283           0       11011           0
<weights>
0.11858E+02
</weights>
</event>
<event>
     13  10001  1.35503E+01  2.77826E+01 -1.00000E+00  1.55393E-01
      -1    -1     0     0     0   501  0.000000000E+00  0.000000000E+00  1.198934658E+02  1.198934658E+02  0.000000000E+00  0.00000E+00  9.000E+00
       1    -1     0     0   511     0  0.000000000E+00  0.000000000E+00 -1.019906489E+03  1.019906489E+03  0.000000000E+00  0.00000E+00  9.000E+00
      -6     2     1     2     0   501  2.332467213E+02  1.209761701E+02 -4.912588560E+02  6.038951439E+02  2.330553893E+02  0.00000E+00  9.000E+00
       6     2     1     2   507     0 -2.201726966E+02 -9.646205322E+01 -2.930898397E+02  4.169505815E+02  1.736812863E+02  0.00000E+00  9.000E+00
     -24     2     3     3     0     0  2.407984042E+01  1.082652219E+02 -2.413141969E+02  2.776939063E+02  8.111822858E+01  0.00000E+00  9.000E+00
      24     2     4     4     0     0 -2.330214352E+02 -1.131093834E+02 -2.497598392E+02  3.685535244E+02  7.974334591E+01  0.00000E+00  9.000E+00
     -11     1     6     6     0     0 -5.444393699E+00  7.777088869E+00  2.731712651E-01  9.497323653E+00  0.000000000E+00  0.00000E+00  9.000E+00
      12     1     6     6     0     0 -2.275770415E+02 -1.208864722E+02 -2.500330105E+02  3.590562008E+02  6.607249480E-06  0.00000E+00  9.000E+00
      13     1     5     5     0     0  4.863744876E+01  4.728558456E+01 -1.550209829E+02  1.692129814E+02  0.000000000E+00  0.00000E+00  9.000E+00
     -14     1     5     5     0     0 -2.455760833E+01  6.097963736E+01 -8.629321396E+01  1.084809249E+02  2.523185073E-06  0.00000E+00  9.000E+00
       5     1     4     4   507     0  1.284873862E+01  1.664733015E+01 -4.333000054E+01  4.839705705E+01  4.750000000E+00  0.00000E+00  9.000E+00
      -5     1     3     3     0   501  2.091668809E+02  1.271094823E+01 -2.499446591E+02  3.262012375E+02  4.750000000E+00  0.00000E+00  9.000E+00
      21     1     1     2   511   507 -1.307402472E+01 -2.451411693E+01 -1.156643276E+02  1.189542296E+02  0.000000000E+00  0.00000E+00  9.000E+00
#rwgt            2           4   1.1548625814615159                1     7991822           0           1           0
<weights>
0.13550E+02
</weights>
</event>
<event>
     13  10001  1.35503E+01  2.12243E+01 -1.00000E+00  1.64268E-01
      21    -1     0     0   507   501  0.000000000E+00  0.000000000E+00  3.803278504E+01  3.803278504E+01  0.000000000E+00  0.00000E+00  9.000E+00
      21    -1     0     0   501   512  0.000000000E+00  0.000000000E+00 -1.299225446E+03  1.299225446E+03  0.000000000E+00  0.00000E+00  9.000E+00
      -6     2     1     2     0   502  7.927029782E+01  5.522111838E+01 -7.621616165E+02  7.868466535E+02  1.700122775E+02  0.00000E+00  9.000E+00
       6     2     1     2   507     0 -9.765839157E+01 -4.462169501E+01 -3.888584436E+02  4.382132186E+02  1.711481190E+02  0.00000E+00  9.000E+00
     -24     2     3     3     0     0  5.143443642E+01  9.685708525E+01 -4.105343838E+02  4.316387395E+02  7.580715635E+01  0.00000E+00  9.000E+00
      24     2     4     4     0     0 -5.550010437E+01 -9.349714377E+01 -2.293780923E+02  2.661008261E+02  7.983334496E+01  0.00000E+00  9.000E+00
     -11     1     6     6     0     0 -1.835551021E+01 -7.731108639E+00 -1.705128357E+00  1.999005399E+01  0.000000000E+00  0.00000E+00  9.000E+00
      12     1     6     6     0     0 -3.714459416E+01 -8.576603513E+01 -2.276729639E+02  2.461107721E+02  5.394796609E-06  0.00000E+00  9.000E+00
      13     1     5     5     0     0  1.505059485E+01  8.474067978E+01 -2.014280865E+02  2.190451489E+02  0.000000000E+00  0.00000E+00  9.000E+00
     -14     1     5     5     0     0  3.638384157E+01  1.211640547E+01 -2.091062973E+02  2.125935906E+02  0.000000000E+00  0.00000E+00  9.000E+00
       5     1     4     4   507     0 -4.215828720E+01  4.887544876E+01 -1.594803514E+02  1.721123925E+02  4.750000000E+00  0.00000E+00  9.000E+00
      -5     1     3     3     0   502  2.783586140E+01 -4.163596687E+01 -3.516272327E+02  3.552079140E+02  4.750000000E+00  0.00000E+00  9.000E+00
      21     1     1     2   502   512  1.838809374E+01 -1.059942336E+01 -1.101726006E+02  1.121983587E+02  1.348699152E-06  0.00000E+00  9.000E+00
#rwgt            2         113   32.865492439678221                1     8003492           0           1           0
<weights>
0.13550E+02
</weights>
</event>
<event>
     15  10001  1.35503E+01  2.37973E+01 -1.00000E+00  1.60652E-01
      21    -1     0     0   502   501  0.000000000E+00  0.000000000E+00  6.201402500E+02  6.201402500E+02  0.000000000E+00  0.00000E+00  9.000E+00
       2    -1     0     0   507     0  0.000000000E+00  0.000000000E+00 -3.424011649E+02  3.424011649E+02  0.000000000E+00  0.00000E+00  9.000E+00
      -6     2     1     2     0   501  8.492480394E+01 -1.912289674E+02  5.050250302E+02  5.733477886E+02  1.729065216E+02  0.00000E+00  9.000E+00
       6     2     1     2   507     0 -6.466080624E+01  2.037062642E+02 -1.600596229E+02  3.178795959E+02  1.724850507E+02  0.00000E+00  9.000E+00
     -24     2     3     3     0     0 -1.373041984E+01 -5.818680084E+01  1.714207541E+02  1.984533778E+02  8.015260457E+01  0.00000E+00  9.000E+00
      24     2     4     4     0     0 -1.115079047E+02  1.475080479E+02 -1.117246343E+02  2.297793477E+02  7.825290850E+01  0.00000E+00  9.000E+00
     -11     1     6     6     0     0 -9.106985973E+01  1.531583471E+02 -9.080341991E+01  1.999911491E+02  0.000000000E+00  0.00000E+00  9.000E+00
      12     1     6     6     0     0 -2.043804497E+01 -5.650299189E+00 -2.092121441E+01  2.978819859E+01  1.390207266E-06  0.00000E+00  9.000E+00
      13     1     5     5     0     0  7.434978515E+00 -8.981950063E-01  1.151993021E+02  1.154424743E+02  0.000000000E+00  0.00000E+00  9.000E+00
     -14     1     5     5     0     0 -2.116539835E+01 -5.728860583E+01  5.622145195E+01  8.301090353E+01  1.168007728E-06  0.00000E+00  9.000E+00
       5     1     4     4   511     0  4.406983266E+01  5.170213214E+01 -4.667353982E+01  8.256053802E+01  4.750000000E+00  0.00000E+00  9.000E+00
      -5     1     3     3     0   512  7.794375690E+01 -1.252354681E+02  3.039907448E+02  3.379231971E+02  4.750000000E+00  0.00000E+00  9.000E+00
       2     1     1     2   502     0 -2.026399770E+01 -1.247729680E+01 -6.722632227E+01  7.131403049E+01  0.000000000E+00  0.00000E+00  9.000E+00
      21     1     3     3   512   501  2.071146687E+01 -7.806698410E+00  2.961353137E+01  3.697121367E+01  1.011524364E-06  0.00000E+00  9.000E+00
      21     1     4     4   507   511  2.777265800E+00  4.496084107E+00 -1.661448738E+00  5.539710239E+00  1.095007245E-07  0.00000E+00  9.000E+00
#rwgt            1          17   10.107888395132186                1     8004939           0       11110           0
<weights>
0.10527E+02
</weights>
</event>
<event>
     15  10001  1.35503E+01  3.37303E+01 -1.00000E+00  2.17745E-01
      21    -1     0     0   502   501  0.000000000E+00  0.000000000E+00  4.011261609E+01  4.011261609E+01  0.000000000E+00  0.00000E+00  9.000E+00
       2    -1     0     0   507     0  0.000000000E+00  0.000000000E+00 -2.987309823E+03  2.987309823E+03  0.000000000E+00  0.00000E+00  9.000E+00
      -6     2     1     2     0   501 -9.056159408E+01  8.492679808E+01 -2.961387214E+02  3.638541351E+02  1.711073521E+02  0.00000E+00  9.000E+00
       6     2     1     2   507     0  9.968547529E+01 -5.245391490E+01 -1.786710531E+03  1.798562454E+03  1.726376953E+02  0.00000E+00  9.000E+00
     -24     2     3     3     0     0 -6.225028238E+01  5.785453682E+01 -3.015227184E+02  3.230926869E+02  7.906130256E+01  0.00000E+00  9.000E+00
      24     2     4     4     0     0  7.615973454E+01 -8.570908729E+01 -9.126173896E+02  9.234706298E+02  8.234774755E+01  0.00000E+00  9.000E+00
     -11     1     6     6     0     0  5.536081237E+01 -4.575636425E+00 -2.931628960E+02  2.983793552E+02  0.000000000E+00  0.00000E+00  9.000E+00
      12     1     6     6     0     0  2.079892218E+01 -8.113345086E+01 -6.194544936E+02  6.250912747E+02  0.000000000E+00  0.00000E+00  9.000E+00
      13     1     5     5     0     0 -3.320996545E+01  5.620881183E+01 -9.962949925E+01  1.191149422E+02  0.000000000E+00  0.00000E+00  9.000E+00
     -14     1     5     5     0     0 -2.904031692E+01  1.645724988E+00 -2.018932191E+02  2.039777447E+02  0.000000000E+00  0.00000E+00  9.000E+00
       5     1     4     4   512     0  2.000032701E+01  3.116857275E+01 -7.467866477E+02  7.477194345E+02  4.750000000E+00  0.00000E+00  9.000E+00
      -5     1     3     3     0   511 -1.398427626E+01  1.831509929E+01  4.442072676E+00  2.394362867E+01  4.750000000E+00  0.00000E+00  9.000E+00
       2     1     1     2   502     0 -9.123881212E+00 -3.247288318E+01 -8.643479543E+02  8.650058493E+02  0.000000000E+00  0.00000E+00  9.000E+00
      21     1     3     3   511   501 -1.432703544E+01  8.757161975E+00  9.419242794E-01  1.681781947E+01  1.348081625E-06  0.00000E+00  9.000E+00
      21     1     4     4   507   512  3.525413733E+00  2.086599645E+00 -1.273064935E+02  1.273723900E+02  2.336015456E-06  0.00000E+00  9.000E+00
#rwgt            1          17   305.94401882300099                1     8013721           0       11110           0
<weights>
0.12072E+02
</weights>
</event>
<event>
     14  10001  1.35503E+01  5.20550E+01 -1.00000E+00  7.49972E-01
      21    -1     0     0   511   501  0.000000000E+00  0.000000000E+00  9.556354277E+01  9.556354277E+01  0.000000000E+00  0.00000E+00  9.000E+00
      21    -1     0     0   507   502  0.000000000E+00  0.000000000E+00 -2.283823580E+03  2.283823580E+03  0.000000000E+00  0.00000E+00  9.000E+00
      -6     2     1     2     0   501  1.378460448E+02 -7.624405707E+01 -2.597183579E+02  3.495424665E+02  1.729497676E+02  0.00000E+00  9.000E+00
       6     2     1     2   507     0 -9.553103493E+01  1.065617901E+02 -1.957512949E+03  1.970270673E+03  1.721278176E+02  0.00000E+00  9.000E+00
     -24     2     3     3     0     0  1.589725830E+02 -2.618858768E+01 -1.973736789E+02  2.667094892E+02  7.886354174E+01  0.00000E+00  9.000E+00
      24     2     4     4     0     0 -1.188185180E+02  1.138689812E+02 -1.374725465E+03  1.386813118E+03  7.935072154E+01  0.00000E+00  9.000E+00
     -11     1     6     6     0     0 -7.176265986E+01  5.977759562E+01 -1.056063688E+03  1.060185716E+03  0.000000000E+00  0.00000E+00  9.000E+00
      12     1     6     6     0     0 -4.705585811E+01  5.409138556E+01 -3.186617770E+02  3.266274022E+02  7.629394531E-06  0.00000E+00  9.000E+00
      13     1     5     5     0     0  7.352594037E+01 -4.339937397E+01 -1.342135667E+02  1.590686991E+02  0.000000000E+00  0.00000E+00  9.000E+00
     -14     1     5     5     0     0  8.544664260E+01  1.721078629E+01 -6.316011227E+01  1.076407900E+02  2.431401974E-06  0.00000E+00  9.000E+00
       5     1     4     4   512     0  2.135801550E+01 -9.065263314E+00 -4.329154123E+02  4.335627527E+02  4.750000000E+00  0.00000E+00  9.000E+00
      -5     1     3     3     0   501 -2.112653813E+01 -5.005546938E+01 -6.234467898E+01  8.283297728E+01  4.750000000E+00  0.00000E+00  9.000E+00
      21     1     1     2   511   502 -4.231500992E+01 -3.031773305E+01  2.897126981E+01  5.957398322E+01  4.046097457E-06  0.00000E+00  9.000E+00
      21     1     4     4   507   512  1.929467547E+00  1.758072253E+00 -1.498720723E+02  1.498948022E+02  0.000000000E+00  0.00000E+00  9.000E+00
#rwgt            1          17   83.452312056751737                1     8021431           0         110           0
<weights>
0.90486E+01
</weights>
</event>
<event>
     15  10001  1.35503E+01  2.39497E+01 -1.00000E+00  3.34804E-01
      21    -1     0     0   512   501  0.000000000E+00  0.000000000E+00  8.900505178E+01  8.900505178E+01  0.000000000E+00  0.00000E+00  9.000E+00
      21    -1     0     0   501   502  0.000000000E+00  0.000000000E+00 -6.622026034E+02  6.622026034E+02  0.000000000E+00  0.00000E+00  9.000E+00
      -6     2     1     2     0   502 -4.723614583E+01 -1.512046252E+02 -3.036528962E+02  3.832506131E+02  1.719937759E+02  0.00000E+00  9.000E+00
       6     2     1     2   507     0  2.737089758E+01  1.378271181E+02 -2.598820050E+02  3.421316166E+02  1.725395782E+02  0.00000E+00  9.000E+00
     -24     2     3     3     0     0  8.968846946E+00 -3.746039675E+01 -2.031392020E+02  2.212173267E+02  7.866288002E+01  0.00000E+00  9.000E+00
      24     2     4     4     0     0 -4.463526880E+01  8.916742831E+01 -1.955872214E+02  2.338755047E+02  8.062414661E+01  0.00000E+00  9.000E+00
     -11     1     6     6     0     0 -4.089555922E+01  1.036261679E+02 -1.834678043E+02  2.146421782E+02  0.000000000E+00  0.00000E+00  9.000E+00
      12     1     6     6     0     0 -3.739709576E+00 -1.445873957E+01 -1.211941711E+01  1.923332651E+01  6.951036328E-07  0.00000E+00  9.000E+00
      13     1     5     5     0     0  9.336944224E+00 -3.615150595E+01 -2.104726743E+02  2.137588747E+02  0.000000000E+00  0.00000E+00  9.000E+00
     -14     1     5     5     0     0 -3.680972785E-01 -1.308890800E+00  7.333472245E+00  7.458451977E+00  9.499417216E-07  0.00000E+00  9.000E+00
       5     1     4     4   513     0  6.217496223E+01  4.203189044E+01 -5.440586048E+01  9.281684059E+01  4.750000000E+00  0.00000E+00  9.000E+00
      -5     1     3     3     0   511 -4.672786656E+01 -9.715869394E+01 -8.341579989E+01  1.363967136E+02  4.750000000E+00  0.00000E+00  9.000E+00
      21     1     1     2   512   507  1.986524825E+01  1.337750706E+01 -9.662650380E+00  2.582542537E+01  4.460403188E-07  0.00000E+00  9.000E+00
      21     1     3     3   511   502 -9.477126212E+00 -1.658553451E+01 -1.709789428E+01  2.563657280E+01  2.384185791E-07  0.00000E+00  9.000E+00
      21     1     4     4   507   513  9.831204143E+00  6.627799399E+00 -9.888923130E+00  1.543927137E+01  2.384185791E-07  0.00000E+00  9.000E+00
#rwgt            1          17   4.0185678022196134                1     8034098           0       11110           0
<weights>
0.17508E+02
</weights>
</event>
<event>
     15  10001  1.35503E+01  2.95546E+01 -1.00000E+00  4.89524E-01
      21    -1     0     0   507   501  0.000000000E+00  0.000000000E+00  9.585793625E+02  9.585793625E+02  0.000000000E+00  0.00000E+00  9.000E+00
      21    -1     0     0   511   502  0.000000000E+00  0.000000000E+00 -2.225425596E+02  2.225425596E+02  0.000000000E+00  0.00000E+00  9.000E+00
      -6     2     1     2     0   502 -9.258499999E+01 -6.185861908E+01  4.097174978E+02  4.584082338E+02  1.728328956E+02  0.00000E+00  9.000E+00
       6     2     1     2   507     0  8.862658470E+01  3.257029778E+01  5.045990034E+02  5.420008619E+02  1.738657077E+02  0.00000E+00  9.000E+00
     -24     2     3     3     0     0 -8.540173678E+01  1.753145223E+01  2.065850186E+02  2.397971421E+02  8.499700558E+01  0.00000E+00  9.000E+00
      24     2     4     4     0     0 -1.090963704E+01  2.157941498E+01  1.287374775E+02  1.521801071E+02  7.746454372E+01  0.00000E+00  9.000E+00
     -11     1     6     6     0     0 -1.452559208E+01  4.202127725E+01  1.227811678E+02  1.305832904E+02  0.000000000E+00  0.00000E+00  9.000E+00
      12     1     6     6     0     0  3.615955033E+00 -2.044186226E+01  5.956309705E+00  2.159681664E+01  1.428025788E-06  0.00000E+00  9.000E+00
      13     1     5     5     0     0 -5.154894536E+01  4.591479461E+01  7.969090254E+01  1.054329269E+02  0.000000000E+00  0.00000E+00  9.000E+00
     -14     1     5     5     0     0 -3.385279143E+01 -2.838334238E+01  1.268941161E+02  1.343642151E+02  0.000000000E+00  0.00000E+00  9.000E+00
       5     1     4     4   512     0  9.990221019E+01  1.089743591E+01  3.556614275E+02  3.696171252E+02  4.750000000E+00  0.00000E+00  9.000E+00
      -5     1     3     3     0   514 -6.278827402E+00 -7.945684686E+01  1.999829982E+02  2.153336394E+02  4.750000000E+00  0.00000E+00  9.000E+00
      21     1     1     2   511   501  3.958415291E+00  2.928832130E+01 -1.782796982E+02  1.807128264E+02  7.136645101E-06  0.00000E+00  9.000E+00
      21     1     4     4   507   512 -3.659884445E-01  9.344688147E-02  2.020009834E+01  2.020362969E+01  2.384185791E-07  0.00000E+00  9.000E+00
      21     1     3     3   514   502 -9.044358069E-01  6.677554336E-02  3.149480964E+00  3.277452279E+00  5.960464478E-08  0.00000E+00  9.000E+00
#rwgt            1          17   6.9659675274678587                1     8045835           0       11011           0
<weights>
0.20862E+02
</weights>
</event>
<event>
     13  10001  1.35503E+01  5.37991E+01 -1.00000E+00  1.37285E-01
      21    -1     0     0   502   501  0.000000000E+00  0.000000000E+00  2.444042237E+02  2.444042237E+02  0.000000000E+00  0.00000E+00  9.000E+00
      21    -1     0     0   507   512  0.000000000E+00  0.000000000E+00 -8.837518274E+02  8.837518274E+02  0.000000000E+00  0.00000E+00  9.000E+00
      -6     2     1     2     0   501 -2.453283860E+02  1.632545450E+01  9.781563028E+01  3.172318947E+02  1.749732552E+02  0.00000E+00  9.000E+00
       6     2     1     2   507     0  2.172032251E+02 -6.218735606E+01 -6.174932546E+02  6.797172867E+02  1.722589973E+02  0.00000E+00  9.000E+00
     -24     2     3     3     0     0 -1.406465662E+02  5.643345805E+01  1.109501112E+02  2.042628174E+02  8.029433120E+01  0.00000E+00  9.000E+00
      24     2     4     4     0     0  1.857123732E+02 -1.058475302E+02 -4.777052783E+02  5.298469249E+02  8.272028534E+01  0.00000E+00  9.000E+00
     -11     1     6     6     0     0  1.816982205E+02 -1.073981279E+02 -4.021847126E+02  4.542038576E+02  0.000000000E+00  0.00000E+00  9.000E+00
      12     1     6     6     0     0  4.014152740E+00  1.550597672E+00 -7.552056578E+01  7.564306730E+01  1.348699152E-06  0.00000E+00  9.000E+00
      13     1     5     5     0     0 -2.623209824E+01  1.505361698E+01  6.938688207E+01  7.569196633E+01  0.000000000E+00  0.00000E+00  9.000E+00
     -14     1     5     5     0     0 -1.144144680E+02  4.137984107E+01  4.156322909E+01  1.285708511E+02  2.132480600E-06  0.00000E+00  9.000E+00
       5     1     4     4   507     0  3.149085193E+01  4.366017418E+01 -1.397879762E+02  1.498703619E+02  4.750000000E+00  0.00000E+00  9.000E+00
      -5     1     3     3     0   501 -1.046818198E+02 -4.010800354E+01 -1.313448088E+01  1.129690773E+02  4.750000000E+00  0.00000E+00  9.000E+00
      21     1     1     2   502   512  2.812516082E+01  4.586190156E+01 -1.196699794E+02  1.312068697E+02  1.907348633E-06  0.00000E+00  9.000E+00
#rwgt            2         113   2.5196001239840671                1     8069858           0           1           0
<weights>
0.13550E+02
</weights>
</event>
<event>
     15  10001 -1.35503E+01  7.04603E+01 -1.00000E+00  3.11584E-01
      21    -1     0     0   511   501  0.000000000E+00  0.000000000E+00  1.143956391E+02  1.143956391E+02  0.000000000E+00  0.00000E+00  9.000E+00
      21    -1     0     0   507   502  0.000000000E+00  0.000000000E+00 -6.224245162E+02  6.224245162E+02  0.000000000E+00  0.00000E+00  9.000E+00
      -6     2     1     2     0   501 -2.766866674E+01 -1.089415209E+01 -3.692957812E+01  1.784716482E+02  1.720584140E+02  0.00000E+00  9.000E+00
       6     2     1     2   507     0  9.100657912E+01 -1.997604508E+01 -2.197731366E+02  2.973322239E+02  1.772709225E+02  0.00000E+00  9.000E+00
     -24     2     3     3     0     0 -9.704991801E-01 -1.508798747E+00 -8.655326814E+01  1.200842788E+02  8.321987409E+01  0.00000E+00  9.000E+00
      24     2     4     4     0     0  2.532941372E+01 -6.657324854E+01 -8.373181207E+01  1.369019244E+02  8.159377386E+01  0.00000E+00  9.000E+00
     -11     1     6     6     0     0  5.355893080E+01 -2.926145175E+01 -4.088832794E+01  7.346187438E+01  0.000000000E+00  0.00000E+00  9.000E+00
      12     1     6     6     0     0 -2.822951708E+01 -3.731179679E+01 -4.284348413E+01  6.344005002E+01  1.651812370E-06  0.00000E+00  9.000E+00
      13     1     5     5     0     0  1.764017108E+01  2.831427721E+01 -8.418310256E+00  3.440555009E+01  0.000000000E+00  0.00000E+00  9.000E+00
     -14     1     5     5     0     0 -1.861067026E+01 -2.982307596E+01 -7.813495788E+01  8.567872869E+01  3.162979880E-06  0.00000E+00  9.000E+00
       5     1     4     4   513     0  6.787662749E+01  4.706635179E+01 -1.314836972E+02  1.553480066E+02  4.750000000E+00  0.00000E+00  9.000E+00
      -5     1     3     3     0   512 -2.769048506E+01 -9.502016263E+00  4.694925168E+01  5.553238703E+01  4.750000000E+00  0.00000E+00  9.000E+00
      21     1     1     2   511   502 -6.333791238E+01  3.087019717E+01 -2.513261624E+02  2.610162832E+02  0.000000000E+00  0.00000E+00  9.000E+00
      21     1     4     4   507   513 -2.199462096E+00 -4.691483319E-01 -4.557627306E+00  5.082292822E+00  1.460009660E-07  0.00000E+00  9.000E+00
      21     1     3     3   512   501  9.923174998E-01  1.166629185E-01  2.674438333E+00  2.854982426E+00  7.300048300E-08  0.00000E+00  9.000E+00
#rwgt            1          17  -3.6098474406500975                1     8079321           0       11011           0
<weights>
-.24027E+02
</weights>
</event>
<event>
     15  10001  1.35503E+01  1.32216E+01 -1.00000E+00  4.24584E-01
      -2    -1     0     0     0   512  0.000000000E+00  0.000000000E+00  2.365441974E+02  2.365441974E+02  0.000000000E+00  0.00000E+00  9.000E+00
       2    -1     0     0   507     0  0.000000000E+00  0.000000000E+00 -3.503685832E+02  3.503685832E+02  0.000000000E+00  0.00000E+00  9.000E+00
      -6     2     1     2     0   501 -3.672132895E+01  8.518634384E+01  1.464499455E+02  2.510881618E+02  1.816384025E+02  0.00000E+00  9.000E+00
       6     2     1     2   507     0  2.519539194E+01 -7.870847940E+01 -2.118137177E+02  2.855927462E+02  1.728245735E+02  0.00000E+00  9.000E+00
     -24     2     3     3     0     0 -4.194445139E+01  1.088099511E+02  5.109230393E+01  1.521866829E+02  8.337517913E+01  0.00000E+00  9.000E+00
      24     2     4     4     0     0  1.910997838E+01 -8.698954053E+01 -2.322949691E+02  2.614351597E+02  8.034313056E+01  0.00000E+00  9.000E+00
     -11     1     6     6     0     0 -2.583428731E+00 -6.168528667E+01 -6.051387186E+01  8.645043310E+01  0.000000000E+00  0.00000E+00  9.000E+00
      12     1     6     6     0     0  2.169340711E+01 -2.530425386E+01 -1.717810973E+02  1.749847266E+02  6.877043296E-06  0.00000E+00  9.000E+00
      13     1     5     5     0     0 -2.193747714E+01  1.227139695E+01  4.725214441E+01  5.352200704E+01  0.000000000E+00  0.00000E+00  9.000E+00
     -14     1     5     5     0     0 -2.000697424E+01  9.653855410E+01  3.840159519E+00  9.866467590E+01  3.773261198E-06  0.00000E+00  9.000E+00
       5     1     4     4   513     0  6.963061388E+00  8.188638610E+00  1.986678416E+01  2.308223644E+01  4.750000000E+00  0.00000E+00  9.000E+00
      -5     1     3     3     0   511  6.591376431E+00 -2.324202036E+01  9.234241186E+01  9.556841152E+01  4.750000000E+00  0.00000E+00  9.000E+00
      21     1     1     2   501   512  1.152593702E+01 -6.477864448E+00 -4.846061363E+01  5.023187261E+01  0.000000000E+00  0.00000E+00  9.000E+00
      21     1     3     3   511   501 -1.368253998E+00 -3.815868485E-01  3.015229732E+00  3.333067335E+00  5.960464478E-08  0.00000E+00  9.000E+00
      21     1     4     4   507   513 -8.776478278E-01  9.242252543E-02  6.144673153E-01  1.075350043E+00  2.580956828E-08  0.00000E+00  9.000E+00
#rwgt            1           6  0.76997223797875392                1     8086268           0       11110           0
<weights>
0.14564E+02
</weights>
</event>
<event>
     14  10001  1.35503E+01  2.39002E+01 -1.00000E+00  7.47310E-01
      21    -1     0     0   511   501  0.000000000E+00  0.000000000E+00  1.498447714E+02  1.498447714E+02  0.000000000E+00  0.00000E+00  9.000E+00
      21    -1     0     0   507   502  0.000000000E+00  0.000000000E+00 -2.601269016E+02  2.601269016E+02  0.000000000E+00  0.00000E+00  9.000E+00
      -6     2     1     2     0   501 -5.993451848E+00 -4.947023683E+01 -3.754228263E+01  1.808431691E+02  1.697398098E+02  0.00000E+00  9.000E+00
       6     2     1     2   507     0  1.895240442E+01  2.938829281E+01 -9.219559802E+01  1.983105683E+02  1.720586756E+02  0.00000E+00  9.000E+00
     -24     2     3     3     0     0 -2.562014867E+01 -7.758755057E+01 -6.996499696E+01  1.334133740E+02  7.891645918E+01  0.00000E+00  9.000E+00
      24     2     4     4     0     0  4.803689467E+01 -4.123961381E+00 -1.115421368E+02  1.457037441E+02  8.039516437E+01  0.00000E+00  9.000E+00
     -11     1     6     6     0     0 -1.891688271E+01 -1.601521054E+01 -2.111082030E+01  3.255767427E+01  0.000000000E+00  0.00000E+00  9.000E+00
      12     1     6     6     0     0  6.695377738E+01  1.189124916E+01 -9.043131645E+01  1.131460698E+02  2.697398305E-06  0.00000E+00  9.000E+00
      13     1     5     5     0     0  2.348982272E+01 -2.998406063E+00 -2.052053340E+01  3.133455762E+01  0.000000000E+00  0.00000E+00  9.000E+00
     -14     1     5     5     0     0 -4.910997139E+01 -7.458914451E+01 -4.944446356E+01  1.020788163E+02  2.132480600E-06  0.00000E+00  9.000E+00
       5     1     4     4   512     0 -2.775705932E+01  3.621674142E+01  1.769339506E+01  4.917037146E+01  4.750000000E+00  0.00000E+00  9.000E+00
      -5     1     3     3     0   501  1.962669682E+01  2.811731375E+01  3.242271433E+01  4.742979512E+01  4.750000000E+00  0.00000E+00  9.000E+00
      21     1     1     2   511   502 -1.295895258E+01  2.008194401E+01  1.945575047E+01  3.081793558E+01  7.539457465E-07  0.00000E+00  9.000E+00
      21     1     4     4   507   512 -1.327430927E+00 -2.704487222E+00  1.653143672E+00  3.436452822E+00  1.884864366E-07  0.00000E+00  9.000E+00
#rwgt            1          17   13.361482898472726                1     8088745           0         110           0
<weights>
0.51792E+01
</weights>
</event>
<event>
     15  10001  1.35503E+01  1.82784E+01 -1.00000E+00  3.46475E-01
      21    -1     0     0   512   501  0.000000000E+00  0.000000000E+00  1.149502789E+02  1.149502789E+02  0.000000000E+00  0.00000E+00  9.000E+00
      21    -1     0     0   501   502  0.000000000E+00  0.000000000E+00 -3.196226087E+03  3.196226087E+03  0.000000000E+00  0.00000E+00  9.000E+00
      -6     2     1     2     0   502 -2.441902416E+02 -5.936529860E+01 -2.845579223E+03  2.862035993E+03  1.754303264E+02  0.00000E+00  9.000E+00
       6     2     1     2   507     0  2.504246890E+02  4.218296049E+01 -1.164856580E+02  3.285362840E+02  1.728445960E+02  0.00000E+00  9.000E+00
     -24     2     3     3     0     0 -4.829854742E+01  2.258680633E+01 -8.989837208E+02  9.038649403E+02  7.718281291E+01  0.00000E+00  9.000E+00
      24     2     4     4     0     0  1.076924055E+02 -3.098797212E+01 -1.630768116E+01  1.392694852E+02  8.106873892E+01  0.00000E+00  9.000E+00
     -11     1     6     6     0     0  7.662882380E+01 -3.847867894E+01 -4.454447564E+01  9.662709599E+01  0.000000000E+00  0.00000E+00  9.000E+00
      12     1     6     6     0     0  3.106358173E+01  7.490706823E+00  2.823679448E+01  4.264238925E+01  5.277620225E-06  0.00000E+00  9.000E+00
      13     1     5     5     0     0 -3.061410756E+01  3.174070724E+00 -8.210350425E+02  8.216117327E+02  0.000000000E+00  0.00000E+00  9.000E+00
     -14     1     5     5     0     0 -1.768443986E+01  1.941273561E+01 -7.794867824E+01  8.225320757E+01  1.348699152E-06  0.00000E+00  9.000E+00
       5     1     4     4   514     0  1.292348257E+02  6.690246310E+01 -9.274340868E+01  1.726310578E+02  4.750000000E+00  0.00000E+00  9.000E+00
      -5     1     3     3     0   511 -1.873924949E+02 -7.777045156E+01 -1.875182749E+03  1.886132842E+03  4.750000000E+00  0.00000E+00  9.000E+00
      21     1     1     2   512   507 -6.234447359E+00  1.718233811E+01 -1.192109269E+02  1.206040885E+02  1.348699152E-06  0.00000E+00  9.000E+00
      21     1     3     3   511   502 -8.499199302E+00 -4.181653367E+00 -7.141275290E+01  7.203821133E+01  1.348699152E-06  0.00000E+00  9.000E+00
      21     1     4     4   507   514  1.349745771E+01  6.268469508E+00 -7.434568184E+00  1.663574100E+01  3.475518164E-07  0.00000E+00  9.000E+00
#rwgt            1          17   332.90410236461361                1     8096835           0       11110           0
<weights>
0.17433E+02
</weights>
</event>
<event>
     15  10001  1.35503E+01  2.99590E+01 -1.00000E+00  2.19492E-01
      21    -1     0     0   511   501  0.000000000E+00  0.000000000E+00  8.548785409E+02  8.548785409E+02  0.000000000E+00  0.00000E+00  9.000E+00
      21    -1     0     0   507   502  0.000000000E+00  0.000000000E+00 -4.258680555E+02  4.258680555E+02  0.000000000E+00  0.00000E+00  9.000E+00
      -6     2     1     2     0   501  5.625500632E+01 -2.145438160E+01 -1.260311665E+02  2.268794464E+02  1.787890155E+02  0.00000E+00  9.000E+00
       6     2     1     2   507     0 -8.548849013E+01  2.800769375E+01 -2.120387850E+02  2.862018980E+02  1.698775066E+02  0.00000E+00  9.000E+00
     -24     2     3     3     0     0  4.962608171E+01 -4.047964458E+01 -1.556082837E+02  1.832221755E+02  7.249191706E+01  0.00000E+00  9.000E+00
      24     2     4     4     0     0 -1.197632230E+02 -2.891685660E+00 -1.676532561E+02  2.217475320E+02  8.193144839E+01  0.00000E+00  9.000E+00
     -11     1     6     6     0     0 -3.127744874E+01 -3.850608320E+01 -6.208572076E+01  7.947096303E+01  0.000000000E+00  0.00000E+00  9.000E+00
      12     1     6     6     0     0 -8.848577423E+01  3.561439754E+01 -1.055675353E+02  1.422765689E+02  1.907348633E-06  0.00000E+00  9.000E+00
      13     1     5     5     0     0 -8.002313652E+00 -2.313644507E+01 -9.384999860E+01  9.699048588E+01  0.000000000E+00  0.00000E+00  9.000E+00
     -14     1     5     5     0     0  5.762839536E+01 -1.734319951E+01 -6.175828510E+01  8.623168965E+01  2.780414531E-06  0.00000E+00  9.000E+00
       5     1     4     4   513     0  2.955935725E+01  2.798567041E+01 -3.694809485E+01  5.517859696E+01  4.750000000E+00  0.00000E+00  9.000E+00
      -5     1     3     3     0   512  1.027798831E+01  2.034291304E+01  3.162480574E+01  3.927037042E+01  4.750000000E+00  0.00000E+00  9.000E+00
      21     1     1     2   511   502  2.923348381E+01 -6.553312156E+00  7.670804368E+02  7.676652519E+02  0.000000000E+00  0.00000E+00  9.000E+00
      21     1     3     3   512   501 -3.649063704E+00 -1.317650055E+00 -2.047688548E+00  4.386900497E+00  8.429369702E-08  0.00000E+00  9.000E+00
      21     1     4     4   507   513  4.715375594E+00  2.913709000E+00 -7.437434001E+00  9.275769060E+00  1.884864366E-07  0.00000E+00  9.000E+00
#rwgt            1          17   70.429959628714897                1     8108553           0       11110           0
<weights>
0.12209E+02
</weights>
</event>
<event>
     15  10001 -1.35503E+01  1.10428E+02 -1.00000E+00  2.60523E-01
      21    -1     0     0   507   512  0.000000000E+00  0.000000000E+00  3.068540355E+02  3.068540355E+02  0.000000000E+00  0.00000E+00  9.000E+00
      21    -1     0     0   501   502  0.000000000E+00  0.000000000E+00 -6.230110716E+02  6.230110716E+02  0.000000000E+00  0.00000E+00  9.000E+00
      -6     2     1     2     0   502  1.808646018E+01 -1.156074217E+02 -3.666060044E+02  4.207485325E+02  1.701092860E+02  0.00000E+00  9.000E+00
       6     2     1     2   507     0  7.444186058E+01  5.533391477E+01 -1.725599176E+02  2.602645122E+02  1.713395996E+02  0.00000E+00  9.000E+00
     -24     2     3     3     0     0 -3.948257181E+01 -3.678990137E+01 -2.496162464E+02  2.671113764E+02  7.828056331E+01  0.00000E+00  9.000E+00
      24     2     4     4     0     0  4.968004305E+01  1.416710341E+01 -1.853626730E+02  2.092061359E+02  8.209185862E+01  0.00000E+00  9.000E+00
     -11     1     6     6     0     0  6.537581308E+01  3.136407831E+01 -1.249953924E+02  1.445044998E+02  0.000000000E+00  0.00000E+00  9.000E+00
      12     1     6     6     0     0 -1.569577003E+01 -1.719697490E+01 -6.036728063E+01  6.470163609E+01  9.536743164E-07  0.00000E+00  9.000E+00
      13     1     5     5     0     0 -6.733815154E+00 -2.962220722E+01 -2.208729387E+02  2.229521798E+02  0.000000000E+00  0.00000E+00  9.000E+00
     -14     1     5     5     0     0 -3.274875666E+01 -7.167694150E+00 -2.874330767E+01  4.415919652E+01  1.305872339E-06  0.00000E+00  9.000E+00
       5     1     4     4   511     0  1.972011778E+01  3.011010979E+01  5.076835044E+00  3.665840300E+01  4.750000000E+00  0.00000E+00  9.000E+00
      -5     1     3     3     0   514  5.655979793E+01 -7.409448277E+01 -1.038067237E+02  1.395972833E+02  4.750000000E+00  0.00000E+00  9.000E+00
      21     1     1     2   501   512 -9.252832077E+01  6.027350689E+01  2.230088859E+02  2.488520624E+02  6.607249480E-06  0.00000E+00  9.000E+00
      21     1     4     4   507   511  5.041699756E+00  1.105670157E+01  7.725920330E+00  1.439997330E+01  4.129530925E-07  0.00000E+00  9.000E+00
      21     1     3     3   514   502  1.009234069E+00 -4.723037523E+00 -1.318303429E+01  1.403987286E+01  1.685873940E-07  0.00000E+00  9.000E+00
#rwgt            1          17  -53.164939316063382                1     8116358           0       11011           0
<weights>
-.13851E+02
</weights>
</event>
<event>
     14  10001  1.35503E+01  2.59247E+01 -1.00000E+00  2.50365E-01
      21    -1     0     0   511   501  0.000000000E+00  0.000000000E+00  2.602029543E+02  2.602029543E+02  0.000000000E+00  0.00000E+00  9.000E+00
      21    -1     0     0   507   502  0.000000000E+00  0.000000000E+00 -1.998870230E+02  1.998870230E+02  0.000000000E+00  0.00000E+00  9.000E+00
      -6     2     1     2     0   501  6.516720300E+01  1.093441259E+02 -3.603002423E+00  2.138371703E+02  1.717860633E+02  0.00000E+00  9.000E+00
       6     2     1     2   507     0 -3.969979746E+01 -1.141917369E+02  6.221742888E+01  2.202723683E+02  1.733005513E+02  0.00000E+00  9.000E+00
     -24     2     3     3     0     0  4.779512673E+01  8.544526253E+00 -4.325572980E+01  1.037187149E+02  8.080303582E+01  0.00000E+00  9.000E+00
      24     2     4     4     0     0  3.147808595E+01 -3.276183611E+01  5.934532586E+01  1.119767945E+02  8.338301387E+01  0.00000E+00  9.000E+00
     -11     1     6     6     0     0 -2.031348189E+01  1.382740730E+01  9.627049009E+00  2.639156706E+01  0.000000000E+00  0.00000E+00  9.000E+00
      12     1     6     6     0     0  5.179156784E+01 -4.658924341E+01  4.971827685E+01  8.558522743E+01  3.568322551E-06  0.00000E+00  9.000E+00
      13     1     5     5     0     0 -2.158799539E+01  1.080213774E+01 -1.688437593E+01  2.945861292E+01  0.000000000E+00  0.00000E+00  9.000E+00
     -14     1     5     5     0     0  6.938312212E+01 -2.257611484E+00 -2.637135387E+01  7.426010200E+01  2.718390048E-06  0.00000E+00  9.000E+00
       5     1     4     4   507     0 -7.117788341E+01 -8.142990082E+01  2.872103022E+00  1.082955738E+02  4.750000000E+00  0.00000E+00  9.000E+00
      -5     1     3     3     0   512  1.030062400E+01  7.780620170E+01  2.895078218E+01  8.378912917E+01  4.750000000E+00  0.00000E+00  9.000E+00
      21     1     1     2   511   502 -2.546740553E+01  4.847611031E+00  1.701504828E+00  2.598043872E+01  6.426530675E-07  0.00000E+00  9.000E+00
      21     1     3     3   512   501  7.071452265E+00  2.299339794E+01  1.070194520E+01  2.632932618E+01  4.915124924E-07  0.00000E+00  9.000E+00
#rwgt            1          17   15.261384951671499                1     8121361           0         111           0
<weights>
0.23107E+02
</weights>
</event>
<event>
     14  10001  1.35503E+01  1.11604E+01 -1.00000E+00  7.52356E-01
      21    -1     0     0   502   501  0.000000000E+00  0.000000000E+00  9.484629754E+01  9.484629754E+01  0.000000000E+00  0.00000E+00  9.000E+00
      21    -1     0     0   507   512  0.000000000E+00  0.000000000E+00 -6.450068213E+02  6.450068213E+02  0.000000000E+00  0.00000E+00  9.000E+00
      -6     2     1     2     0   501  6.361917240E+01 -1.347203311E+02 -1.562782592E+02  2.765184287E+02  1.727500519E+02  0.00000E+00  9.000E+00
       6     2     1     2   507     0 -5.252140570E+01  1.359005815E+02 -3.873263633E+02  4.503912262E+02  1.777725479E+02  0.00000E+00  9.000E+00
     -24     2     3     3     0     0  7.363926797E+01 -1.304142984E+02 -1.810066799E+02  2.490775555E+02  8.273801684E+01  0.00000E+00  9.000E+00
      24     2     4     4     0     0  1.739055441E+01  3.054475979E+01 -9.286530579E+01  1.285399302E+02  8.162802764E+01  0.00000E+00  9.000E+00
     -11     1     6     6     0     0  2.433181100E+01  5.226555156E+01 -8.803258115E+01  1.052305101E+02  0.000000000E+00  0.00000E+00  9.000E+00
      12     1     6     6     0     0 -6.941256587E+00 -2.172079177E+01 -4.832724646E+00  2.330942011E+01  7.725644944E-07  0.00000E+00  9.000E+00
      13     1     5     5     0     0 -1.805846669E+01 -2.147950339E+01 -3.832613491E+01  4.750126211E+01  0.000000000E+00  0.00000E+00  9.000E+00
     -14     1     5     5     0     0  9.169773466E+01 -1.089347950E+02 -1.426805450E+02  2.015762933E+02  6.031565972E-06  0.00000E+00  9.000E+00
       5     1     4     4   511     0 -6.798914036E+01  1.024324209E+02 -2.648306400E+02  2.920149901E+02  4.750000000E+00  0.00000E+00  9.000E+00
      -5     1     3     3     0   501 -1.002009557E+01 -4.306032664E+00  2.472842076E+01  2.744087327E+01  4.750000000E+00  0.00000E+00  9.000E+00
      21     1     1     2   502   512 -1.109776670E+01 -1.180250443E+00 -6.555901285E+00  1.294346393E+01  2.665600750E-07  0.00000E+00  9.000E+00
      21     1     4     4   507   511 -1.922819756E+00  2.923400800E+00 -2.963041749E+01  2.983630588E+01  5.840038640E-07  0.00000E+00  9.000E+00
#rwgt            1          17   19.457764024602415                1     8132862           0         110           0
<weights>
0.73800E+01
</weights>
</event>
<event>
     15  10001  1.35503E+01  4.37714E+01 -1.00000E+00  3.78089E-01
      21    -1     0     0   507   511  0.000000000E+00  0.000000000E+00  1.085503939E+03  1.085503939E+03  0.000000000E+00  0.00000E+00  9.000E+00
      21    -1     0     0   501   502  0.000000000E+00  0.000000000E+00 -1.301012749E+02  1.301012749E+02  0.000000000E+00  0.00000E+00  9.000E+00
      -6     2     1     2     0   502  3.985409608E+01  1.566696214E+01 -1.501699144E+01  1.787093420E+02  1.728517174E+02  0.00000E+00  9.000E+00
       6     2     1     2   507     0 -1.873524933E+01  2.267275769E+01  2.052666071E+02  2.704918483E+02  1.736847618E+02  0.00000E+00  9.000E+00
     -24     2     3     3     0     0  5.668970328E+01 -3.747071744E+01  2.705234739E+01  1.084013050E+02  8.000772646E+01  0.00000E+00  9.000E+00
      24     2     4     4     0     0  4.471017861E+01 -2.034762329E+01  9.523073585E+01  1.334267456E+02  7.950331781E+01  0.00000E+00  9.000E+00
     -11     1     6     6     0     0 -1.184450302E+01 -2.830112034E+01  5.690272706E+01  6.464646944E+01  0.000000000E+00  0.00000E+00  9.000E+00
      12     1     6     6     0     0  5.655468163E+01  7.953497043E+00  3.832800878E+01  6.878027614E+01  6.743495762E-07  0.00000E+00  9.000E+00
      13     1     5     5     0     0  2.689340857E+01  2.353008676E+01  1.767946922E+01  3.986833379E+01  0.000000000E+00  0.00000E+00  9.000E+00
     -14     1     5     5     0     0  2.979629471E+01 -6.100080420E+01  9.372878168E+00  6.853297116E+01  1.944244674E-06  0.00000E+00  9.000E+00
       5     1     4     4   512     0 -6.486224203E+01  4.153994591E+01  9.740831574E+01  1.242723623E+02  4.750000000E+00  0.00000E+00  9.000E+00
      -5     1     3     3     0   513 -1.590183048E+01  4.831795537E+01 -4.036731113E+01  6.511202140E+01  4.750000000E+00  0.00000E+00  9.000E+00
      21     1     1     2   501   511 -2.111884675E+01 -3.833971983E+01  7.651530487E+02  7.664040239E+02  0.000000000E+00  0.00000E+00  9.000E+00
      21     1     4     4   507   512  1.416814087E+00  1.480435070E+00  1.262755548E+01  1.279274042E+01  1.685873940E-07  0.00000E+00  9.000E+00
      21     1     3     3   513   502 -9.337767231E-01  4.819724209E+00 -1.702027702E+00  5.196015658E+00  2.043144286E-07  0.00000E+00  9.000E+00
#rwgt            1          17   13.811241180850578                1     8140597           0       11011           0
<weights>
0.13070E+02
</weights>
</event>
<event>
     15  10001  1.35503E+01  8.89416E+00 -1.00000E+00  6.23142E-01
      21    -1     0     0   502   511  0.000000000E+00  0.000000000E+00  1.616484948E+03  1.616484948E+03  0.000000000E+00  0.00000E+00  9.000E+00
      21    -1     0     0   507   502  0.000000000E+00  0.000000000E+00 -7.239881595E+01  7.239881595E+01  0.000000000E+00  0.00000E+00  9.000E+00
      -6     2     1     2     0   501  1.136892342E+02 -6.849590548E+01  3.138249628E+02  3.811961169E+02  1.709018467E+02  0.00000E+00  9.000E+00
       6     2     1     2   507     0 -1.213134320E+02  7.307603879E+01  2.851638420E+02  3.625484700E+02  1.733952713E+02  0.00000E+00  9.000E+00
     -24     2     3     3     0     0  5.965638681E+01 -1.089526145E+02  1.937487737E+02  2.433349315E+02  7.901737085E+01  0.00000E+00  9.000E+00
      24     2     4     4     0     0 -5.376775065E+01  4.926702297E+01  2.645659360E+02  2.859304055E+02  8.026737650E+01  0.00000E+00  9.000E+00
     -11     1     6     6     0     0 -7.319231712E+01  2.973954203E+01  2.174152233E+02  2.313243069E+02  0.000000000E+00  0.00000E+00  9.000E+00
      12     1     6     6     0     0  1.942456647E+01  1.952748094E+01  4.715071278E+01  5.460609865E+01  0.000000000E+00  0.00000E+00  9.000E+00
      13     1     5     5     0     0  2.276685615E+01  6.687931988E-01  7.150884058E+01  7.504859295E+01  0.000000000E+00  0.00000E+00  9.000E+00
     -14     1     5     5     0     0  3.688953066E+01 -1.096214077E+02  1.222399331E+02  1.682863386E+02  3.568322551E-06  0.00000E+00  9.000E+00
       5     1     4     4   512     0 -3.386298240E+01  1.803695180E+01  4.757461594E+00  3.895162574E+01  4.750000000E+00  0.00000E+00  9.000E+00
      -5     1     3     3     0   514  4.817825757E+01  3.573252624E+01  1.081103890E+02  1.237270247E+02  4.750000000E+00  0.00000E+00  9.000E+00
      21     1     4     4   507   512 -3.368269891E+01  5.772064022E+00  1.584044439E+01  3.766643874E+01  9.830249847E-07  0.00000E+00  9.000E+00
      21     1     1     2   501   511  7.624197755E+00 -4.580133310E+00  9.450973276E+02  9.451391774E+02  1.525878906E-05  0.00000E+00  9.000E+00
      21     1     3     3   514   501  5.854589823E+00  4.724182810E+00  1.196580012E+01  1.413416066E+01  1.685873940E-07  0.00000E+00  9.000E+00
#rwgt            1          17   14.637375384580562                1     8146735           0      100111           0
<weights>
0.17128E+02
</weights>
</event>
<event>
     13  10001  1.35503E+01  2.99711E+01 -1.00000E+00  1.53069E-01
      21    -1     0     0   502   501  0.000000000E+00  0.000000000E+00  7.805636793E+02  7.805636793E+02  0.000000000E+00  0.00000E+00  9.000E+00
      21    -1     0     0   507   511  0.000000000E+00  0.000000000E+00 -7.326675108E+01  7.326675108E+01  0.000000000E+00  0.00000E+00  9.000E+00
      -6     2     1     2     0   501 -8.715622418E+01 -1.063090684E+02  4.193949773E+02  4.741621975E+02  1.733199849E+02  0.00000E+00  9.000E+00
       6     2     1     2   507     0  5.882589053E+01  1.160896718E+02  2.493399282E+02  3.308287242E+02  1.741836607E+02  0.00000E+00  9.000E+00
     -24     2     3     3     0     0 -9.548742162E+01 -1.283470081E+02  4.115939095E+02  4.488936639E+02  8.065465254E+01  0.00000E+00  9.000E+00
      24     2     4     4     0     0  6.371521736E+01  1.315642608E+01  7.140814379E+01  1.251555830E+02  7.957434572E+01  0.00000E+00  9.000E+00
     -11     1     6     6     0     0  3.497313300E+01  4.094551549E+01  1.478568413E+01  5.584148750E+01  0.000000000E+00  0.00000E+00  9.000E+00
      12     1     6     6     0     0  2.874208435E+01 -2.778908941E+01  5.662245966E+01  6.931409554E+01  6.743495762E-07  0.00000E+00  9.000E+00
      13     1     5     5     0     0 -1.366400776E+01  5.288196013E+00  8.967469201E+01  9.086374696E+01  0.000000000E+00  0.00000E+00  9.000E+00
     -14     1     5     5     0     0 -8.182341386E+01 -1.336352041E+02  3.219192175E+02  3.580299169E+02  3.814697266E-06  0.00000E+00  9.000E+00
       5     1     4     4   507     0 -4.889326825E+00  1.029332457E+02  1.779317844E+02  2.056731411E+02  4.750000000E+00  0.00000E+00  9.000E+00
      -5     1     3     3     0   501  8.331197445E+00  2.203793964E+01  7.801067790E+00  2.526853365E+01  4.750000000E+00  0.00000E+00  9.000E+00
      21     1     1     2   502   511  2.833033365E+01 -9.780603354E+00  3.856202277E+01  4.883950867E+01  6.743495762E-07  0.00000E+00  9.000E+00
#rwgt            2         113   2.1869759942112030                1     8156176           0           1           0
<weights>
0.13550E+02
</weights>
</event>
<event>
     15  10001  1.35503E+01  2.67241E+01 -1.00000E+00  2.47498E-01
      21    -1     0     0   502   512  0.000000000E+00  0.000000000E+00  7.910659921E+02  7.910659921E+02  0.000000000E+00  0.00000E+00  9.000E+00
      21    -1     0     0   507   502  0.000000000E+00  0.000000000E+00 -2.970790668E+02  2.970790668E+02  0.000000000E+00  0.00000E+00  9.000E+00
      -6     2     1     2     0   501  1.087497267E+01 -4.838669710E+01  1.262443426E+02  2.200262395E+02  1.732465714E+02  0.00000E+00  9.000E+00
       6     2     1     2   507     0 -1.804584941E+01  2.264268796E+01  6.044403439E+02  6.299172123E+02  1.749549115E+02  0.00000E+00  9.000E+00
     -24     2     3     3     0     0  3.868385916E+01 -9.080283148E+01  8.076541153E+01  1.505756023E+02  8.005226501E+01  0.00000E+00  9.000E+00
      24     2     4     4     0     0  5.695738744E+01  1.047518840E+01  3.546649540E+02  3.682196330E+02  8.027823453E+01  0.00000E+00  9.000E+00
     -11     1     6     6     0     0  5.676133784E+01  2.610650316E+01  3.431823875E+02  3.488230928E+02  0.000000000E+00  0.00000E+00  9.000E+00
      12     1     6     6     0     0  1.960495970E-01 -1.563131476E+01  1.148256652E+01  1.939654017E+01  8.596304120E-07  0.00000E+00  9.000E+00
      13     1     5     5     0     0  9.584882689E+00 -6.133616566E+00  5.675129681E+01  5.788092015E+01  0.000000000E+00  0.00000E+00  9.000E+00
     -14     1     5     5     0     0  2.909897647E+01 -8.466921491E+01  2.401411472E+01  9.269468211E+01  2.611744678E-06  0.00000E+00  9.000E+00
       5     1     4     4   511     0 -7.550789482E+01  1.103754381E+01  2.410595889E+02  2.528943603E+02  4.750000000E+00  0.00000E+00  9.000E+00
      -5     1     3     3     0   513 -2.661451829E+01  3.744900193E+01  3.555129793E+01  5.828565530E+01  4.750000000E+00  0.00000E+00  9.000E+00
      21     1     1     2   501   512  7.170876748E+00  2.574400915E+01 -2.366977612E+02  2.382016072E+02  5.394796609E-06  0.00000E+00  9.000E+00
      21     1     3     3   513   501 -1.194368207E+00  4.967132448E+00  9.927633179E+00  1.116498189E+01  2.064765462E-07  0.00000E+00  9.000E+00
      21     1     4     4   507   511  5.046579640E-01  1.129955752E+00  8.715800905E+00  8.803219017E+00  1.192092896E-07  0.00000E+00  9.000E+00
#rwgt            1          17   10.976785046205780                1     8158775           0       11110           0
<weights>
0.15039E+02
</weights>
</event>
<event>
     15  10001  1.35503E+01  1.35764E+02 -1.00000E+00  3.40202E-01
       1    -1     0     0   502     0  0.000000000E+00  0.000000000E+00  2.828845163E+02  2.828845163E+02  0.000000000E+00  0.00000E+00  9.000E+00
      21    -1     0     0   507   502  0.000000000E+00  0.000000000E+00 -2.811847630E+02  2.811847630E+02  0.000000000E+00  0.00000E+00  9.000E+00
      -6     2     1     2     0   501  3.421604055E+01 -5.436916871E+01 -1.584546251E+01  1.821144507E+02  1.696698280E+02  0.00000E+00  9.000E+00
       6     2     1     2   507     0 -1.616087280E+02  7.432346021E+00 -3.344092332E+01  2.369322494E+02  1.698410278E+02  0.00000E+00  9.000E+00
     -24     2     3     3     0     0 -7.653807259E+00 -3.780793701E+01 -6.757451010E+01  1.127609808E+02  8.161313321E+01  0.00000E+00  9.000E+00
      24     2     4     4     0     0 -6.721855801E+01  6.172575098E+01 -3.803802549E+01  1.275905676E+02  8.064774442E+01  0.00000E+00  9.000E+00
     -11     1     6     6     0     0  1.601098194E+01 -2.721722899E+00 -2.181142390E+00  1.638647920E+01  0.000000000E+00  0.00000E+00  9.000E+00
      12     1     6     6     0     0 -8.322953995E+01  6.444747388E+01 -3.585688310E+01  1.112040884E+02  4.768371582E-07  0.00000E+00  9.000E+00
      13     1     5     5     0     0  1.813417550E+00  2.567039769E+01 -2.397661214E+01  3.517294032E+01  0.000000000E+00  0.00000E+00  9.000E+00
     -14     1     5     5     0     0 -9.467224809E+00 -6.347833469E+01 -4.359789795E+01  7.758804049E+01  1.507891493E-06  0.00000E+00  9.000E+00
       5     1     4     4   512     0 -9.110649229E+01 -5.383108939E+01  4.379914692E+00  1.060185138E+02  4.750000000E+00  0.00000E+00  9.000E+00
      -5     1     3     3     0   511  4.141090209E+01 -1.668574369E+01  4.850754803E+01  6.609706174E+01  4.750000000E+00  0.00000E+00  9.000E+00
       1     1     1     2   501     0  1.273926874E+02  4.693682268E+01  5.098613913E+01  1.450225793E+02  0.000000000E+00  0.00000E+00  9.000E+00
      21     1     3     3   511   501  4.589457119E-01  1.245119892E-01  3.221499553E+00  3.256408109E+00  0.000000000E+00  0.00000E+00  9.000E+00
      21     1     4     4   507   512 -3.283677669E+00 -4.623155694E-01  2.171874714E-01  3.323167934E+00  5.274937398E-08  0.00000E+00  9.000E+00
#rwgt            1          17   7.8007048364507190                1     8167467           0       11110           0
<weights>
0.17004E+02
</weights>
</event>
<event>
     15  10001  1.35503E+01  1.32089E+01 -1.00000E+00  2.30417E-01
      21    -1     0     0   502   511  0.000000000E+00  0.000000000E+00  3.407491807E+02  3.407491807E+02  0.000000000E+00  0.00000E+00  9.000E+00
      21    -1     0     0   507   502  0.000000000E+00  0.000000000E+00 -1.651408699E+02  1.651408699E+02  0.000000000E+00  0.00000E+00  9.000E+00
      -6     2     1     2     0   501  9.026424115E+01  3.445559752E+01  2.018139815E+02  2.867974744E+02  1.794131734E+02  0.00000E+00  9.000E+00
       6     2     1     2   507     0 -9.603455866E+01 -4.633749310E+01 -1.510187392E+01  2.018365537E+02  1.707047981E+02  0.00000E+00  9.000E+00
     -24     2     3     3     0     0  1.215243582E+01 -3.676801508E+01  5.697966229E+01  1.067891038E+02  8.159449829E+01  0.00000E+00  9.000E+00
      24     2     4     4     0     0 -2.539483240E+01 -3.432686948E+01  5.074553862E+01  1.035048480E+02  7.946642308E+01  0.00000E+00  9.000E+00
     -11     1     6     6     0     0  1.084697822E+01 -6.308339874E+00  5.600588582E+01  5.739434933E+01  0.000000000E+00  0.00000E+00  9.000E+00
      12     1     6     6     0     0 -3.624181062E+01 -2.801852961E+01 -5.260347203E+00  4.611049871E+01  1.095818061E-06  0.00000E+00  9.000E+00
      13     1     5     5     0     0 -1.573294817E+01 -3.464530493E+01  6.702591908E+01  7.707331990E+01  0.000000000E+00  0.00000E+00  9.000E+00
     -14     1     5     5     0     0  2.788538399E+01 -2.122710142E+00 -1.004625679E+01  2.971578392E+01  5.960464478E-07  0.00000E+00  9.000E+00
       5     1     4     4   512     0 -5.632783824E+01 -5.712729234E+00 -5.643629428E+01  8.008169859E+01  4.750000000E+00  0.00000E+00  9.000E+00
      -5     1     3     3     0   513  7.183628410E+01  6.440180073E+01  1.238266712E+02  1.570466512E+02  4.750000000E+00  0.00000E+00  9.000E+00
      21     1     1     2   501   511  5.770317514E+00  1.188189558E+01 -1.110379684E+01  1.725602246E+01  4.129530925E-07  0.00000E+00  9.000E+00
      21     1     4     4   507   512 -1.431188802E+01 -6.297894388E+00 -9.411118257E+00  1.825000710E+01  5.591411304E-07  0.00000E+00  9.000E+00
      21     1     3     3   513   501  6.275521233E+00  6.821811868E+00  2.100764799E+01  2.296171940E+01  0.000000000E+00  0.00000E+00  9.000E+00
#rwgt            1          17   9.3658147593819159                1     8177010           0       11011           0
<weights>
0.12270E+02
</weights>
</event>
<event>
     15  10001 -1.35503E+01  5.89546E+01 -1.00000E+00  2.32485E-01
      21    -1     0     0   502   512  0.000000000E+00  0.000000000E+00  3.016971104E+02  3.016971104E+02  0.000000000E+00  0.00000E+00  9.000E+00
      21    -1     0     0   507   502  0.000000000E+00  0.000000000E+00 -1.048603588E+03  1.048603588E+03  0.000000000E+00  0.00000E+00  9.000E+00
      -6     2     1     2     0   501  8.438227921E+00 -1.091351260E+02  1.237769184E+02  2.383263301E+02  1.717470077E+02  0.00000E+00  9.000E+00
       6     2     1     2   507     0 -7.072102147E+00  1.680738912E+02 -1.335280942E+01  2.526191571E+02  1.879874823E+02  0.00000E+00  9.000E+00
     -24     2     3     3     0     0  4.530326642E+01 -3.738869834E+01  1.280622235E+01  1.005337353E+02  8.057748994E+01  0.00000E+00  9.000E+00
      24     2     4     4     0     0  4.381609054E+01  4.411475391E+01  3.756234195E+01  1.082847753E+02  8.030380888E+01  0.00000E+00  9.000E+00
     -11     1     6     6     0     0  5.289997344E+01  5.366438559E+01  7.827451759E+00  7.575976815E+01  0.000000000E+00  0.00000E+00  9.000E+00
      12     1     6     6     0     0 -9.083882897E+00 -9.549631672E+00  2.973489019E+01  3.252500712E+01  8.259061849E-07  0.00000E+00  9.000E+00
      13     1     5     5     0     0  6.095227654E+01 -1.907598984E+01  3.037143198E+01  7.072126473E+01  0.000000000E+00  0.00000E+00  9.000E+00
     -14     1     5     5     0     0 -1.564901013E+01 -1.831270849E+01 -1.756520963E+01  2.981247054E+01  4.129530925E-07  0.00000E+00  9.000E+00
       5     1     4     4   511     0 -4.168400903E+01  1.128858026E+02 -4.800020461E+01  1.296431378E+02  4.750000000E+00  0.00000E+00  9.000E+00
      -5     1     3     3     0   514 -3.051555663E+01 -6.451128683E+01  9.211437345E+01  1.166212915E+02  4.750000000E+00  0.00000E+00  9.000E+00
      21     1     1     2   501   512 -1.366125774E+00 -5.893876521E+01 -8.573305870E+02  8.593552116E+02  0.000000000E+00  0.00000E+00  9.000E+00
      21     1     4     4   507   511 -9.204183656E+00  1.107333466E+01 -2.914946758E+00  1.469124406E+01  1.837138534E-07  0.00000E+00  9.000E+00
      21     1     3     3   514   501 -6.349481869E+00 -7.235140814E+00  1.885632265E+01  2.117130337E+01  6.307962682E-07  0.00000E+00  9.000E+00
#rwgt            1          17  -17.660843370997217                1     8181905           0       11011           0
<weights>
-.14912E+02
</weights>
</event>
<event>
     15  10001  1.35503E+01  5.98209E+00 -1.00000E+00  1.70246E-01
      -2    -1     0     0     0   512  0.000000000E+00  0.000000000E+00  1.130330744E+02  1.130330744E+02  0.000000000E+00  0.00000E+00  9.000E+00
       2    -1     0     0   507     0  0.000000000E+00  0.000000000E+00 -8.987456900E+02  8.987456900E+02  0.000000000E+00  0.00000E+00  9.000E+00
      -6     2     1     2     0   501 -4.401532737E+01 -5.765856508E+01 -3.893723566E+02  4.322921016E+02  1.732159628E+02  0.00000E+00  9.000E+00
       6     2     1     2   507     0  4.443100658E+01  6.362619271E+01 -4.696388807E+02  5.059443396E+02  1.714543372E+02  0.00000E+00  9.000E+00
     -24     2     3     3     0     0  1.645227619E+00 -7.988811064E+00 -3.323597024E+02  3.421590580E+02  8.089079899E+01  0.00000E+00  9.000E+00
      24     2     4     4     0     0  4.278225513E+01  2.837119729E+01 -1.155667683E+02  1.500378393E+02  8.074917389E+01  0.00000E+00  9.000E+00
     -11     1     6     6     0     0  5.435693508E+01 -9.105398732E+00 -7.961691694E+01  9.683200990E+01  0.000000000E+00  0.00000E+00  9.000E+00
      12     1     6     6     0     0 -1.157467994E+01  3.747659603E+01 -3.594985135E+01  5.320582935E+01  1.261592536E-06  0.00000E+00  9.000E+00
      13     1     5     5     0     0  5.982470359E+00 -2.594083274E+01 -3.170620348E+02  3.181777030E+02  0.000000000E+00  0.00000E+00  9.000E+00
     -14     1     5     5     0     0 -4.337242739E+00  1.795202168E+01 -1.529766751E+01  2.398135501E+01  6.307962682E-07  0.00000E+00  9.000E+00
       5     1     4     4   513     0  3.114209350E+00  2.161701779E+01 -2.252902982E+02  2.263962781E+02  4.750000000E+00  0.00000E+00  9.000E+00
      -5     1     3     3     0   511 -2.848614570E+01 -1.897003079E+01 -3.041927243E+01  4.603495628E+01  4.750000000E+00  0.00000E+00  9.000E+00
      21     1     3     3   511   501 -1.717440930E+01 -3.069972323E+01 -2.659338185E+01  4.409808725E+01  1.752011592E-06  0.00000E+00  9.000E+00
      21     1     1     2   501   512 -4.156792113E-01 -5.967627626E+00  7.329862176E+01  7.354232333E+01  3.814697266E-06  0.00000E+00  9.000E+00
      21     1     4     4   507   513 -1.465457899E+00  1.363797763E+01 -1.287818142E+02  1.295102223E+02  1.907348633E-06  0.00000E+00  9.000E+00
#rwgt            1           6   2.6995962140886975                1     8190175           0      110110           0
<weights>
0.12625E+02
</weights>
</event>
<event>
     15  10001  1.35503E+01  3.79617E+01 -1.00000E+00  2.23156E-01
      21    -1     0     0   512   501  0.000000000E+00  0.000000000E+00  1.079994614E+03  1.079994614E+03  0.000000000E+00  0.00000E+00  9.000E+00
      21    -1     0     0   501   502  0.000000000E+00  0.000000000E+00 -1.472120984E+02  1.472120984E+02  0.000000000E+00  0.00000E+00  9.000E+00
      -6     2     1     2     0   502  1.003286961E+02 -2.663151353E+01  2.840564301E+02  3.482100093E+02  1.725893111E+02  0.00000E+00  9.000E+00
       6     2     1     2   507     0 -1.382774470E+02  2.564109618E+01  7.437278192E+02  7.766911895E+02  1.741838590E+02  0.00000E+00  9.000E+00
     -24     2     3     3     0     0  3.305904825E+01  3.859029643E+01  1.969423986E+02  2.190674575E+02  8.137647638E+01  0.00000E+00  9.000E+00
      24     2     4     4     0     0 -8.150878555E+01  3.436577132E-01  2.234369439E+02  2.525265691E+02  8.486341951E+01  0.00000E+00  9.000E+00
     -11     1     6     6     0     0 -3.114189482E+01  3.440718928E+01  4.762359472E+01  6.649570708E+01  0.000000000E+00  0.00000E+00  9.000E+00
      12     1     6     6     0     0 -5.036689073E+01 -3.406353157E+01  1.758133492E+02  1.860308620E+02  3.814697266E-06  0.00000E+00  9.000E+00
      13     1     5     5     0     0  5.058120339E+01 -2.382992539E+00  1.181973557E+02  1.285875254E+02  0.000000000E+00  0.00000E+00  9.000E+00
     -14     1     5     5     0     0 -1.752215514E+01  4.097328897E+01  7.874504290E+01  9.047993209E+01  1.348699152E-06  0.00000E+00  9.000E+00
       5     1     4     4   514     0 -4.976309509E+01  2.565904488E+01  4.786709394E+02  4.819576568E+02  4.750000000E+00  0.00000E+00  9.000E+00
      -5     1     3     3     0   511  6.389315317E+01 -5.603469435E+01  7.405491804E+01  1.128224950E+02  4.750000000E+00  0.00000E+00  9.000E+00
      21     1     1     2   512   507  3.794875085E+01  9.904173548E-01 -9.500173390E+01  1.023055134E+02  5.722045898E-06  0.00000E+00  9.000E+00
      21     1     3     3   511   502  3.376494717E+00 -9.187115615E+00  1.305911351E+01  1.632005685E+01  1.685873940E-07  0.00000E+00  9.000E+00
      21     1     4     4   507   514 -7.005566356E+00 -3.616064196E-01  4.161993593E+01  4.220696372E+01  4.768371582E-07  0.00000E+00  9.000E+00
#rwgt            1          17   26.963521704035355                1     8191507           0       11110           0
<weights>
0.12362E+02
</weights>
</event>
<event>
     15  10001 -1.35503E+01  7.01211E+01 -1.00000E+00  2.13953E-01
      21    -1     0     0   511   501  0.000000000E+00  0.000000000E+00  1.908674634E+02  1.908674634E+02  0.000000000E+00  0.00000E+00  9.000E+00
      21    -1     0     0   507   502  0.000000000E+00  0.000000000E+00 -4.330583321E+02  4.330583321E+02  0.000000000E+00  0.00000E+00  9.000E+00
      -6     2     1     2     0   501 -4.968669450E+01  9.686346311E+01  2.109299693E+01  2.020163990E+02  1.688621120E+02  0.00000E+00  9.000E+00
       6     2     1     2   507     0  1.144910808E+02 -7.007980088E+01 -9.163427790E+01  2.364894569E+02  1.717877652E+02  0.00000E+00  9.000E+00
     -24     2     3     3     0     0 -9.238784342E+00  1.192446334E+02 -1.302328183E+01  1.434150538E+02  7.806173230E+01  0.00000E+00  9.000E+00
      24     2     4     4     0     0  1.055501039E+02 -8.946192551E+01 -1.044740655E+02  2.073367155E+02  1.137076192E+02  0.00000E+00  9.000E+00
     -11     1     6     6     0     0  5.790968386E+00  1.424685650E+01  1.410973580E+01  2.087086197E+01  0.000000000E+00  0.00000E+00  9.000E+00
      12     1     6     6     0     0  9.975913551E+01 -1.037087820E+02 -1.185838013E+02  1.864658535E+02  1.907348633E-06  0.00000E+00  9.000E+00
      13     1     5     5     0     0 -9.830821537E+00  1.085357231E+02  1.812048214E+01  1.104762423E+02  0.000000000E+00  0.00000E+00  9.000E+00
     -14     1     5     5     0     0  5.920371946E-01  1.070891033E+01 -3.114376397E+01  3.293881150E+01  3.371747881E-07  0.00000E+00  9.000E+00
       5     1     4     4   513     0  6.916179138E+00  1.924632470E+01  1.528866093E+01  2.597229680E+01  4.750000000E+00  0.00000E+00  9.000E+00
      -5     1     3     3     0   512 -2.341463797E+01 -1.644610346E+01  2.546076541E+01  3.859446418E+01  4.750000000E+00  0.00000E+00  9.000E+00
      21     1     1     2   511   502 -6.480438627E+01 -2.678366223E+01 -1.716495878E+02  1.854199396E+02  3.303624740E-06  0.00000E+00  9.000E+00
      21     1     3     3   512   501 -1.703327219E+01 -5.935066828E+00  8.655513357E+00  2.000688110E+01  6.194296387E-07  0.00000E+00  9.000E+00
      21     1     4     4   507   513  2.024797735E+00  1.357999327E-01 -2.448873281E+00  3.180444597E+00  2.980232239E-08  0.00000E+00  9.000E+00
#rwgt            1          17  -19.143896086439426                1     8200442           0       11110           0
<weights>
-.16663E+02
</weights>
</event>
<event>
     15  10001  1.35503E+01  2.31832E+01 -1.00000E+00  1.78807E-01
      21    -1     0     0   502   512  0.000000000E+00  0.000000000E+00  2.083049051E+02  2.083049051E+02  0.000000000E+00  0.00000E+00  9.000E+00
      21    -1     0     0   507   502  0.000000000E+00  0.000000000E+00 -1.494978631E+03  1.494978631E+03  0.000000000E+00  0.00000E+00  9.000E+00
      -6     2     1     2     0   501 -5.319182033E+01 -4.953313572E+01  7.341198807E+01  2.011098731E+02  1.725484273E+02  0.00000E+00  9.000E+00
       6     2     1     2   507     0  7.428760618E+01  3.991926945E+01 -1.349505532E+02  2.768191752E+02  2.265060870E+02  0.00000E+00  9.000E+00
     -24     2     3     3     0     0 -5.580456078E+01 -8.603269692E+01  6.854649578E+00  1.238302531E+02  6.907366669E+01  0.00000E+00  9.000E+00
      24     2     4     4     0     0  4.851181598E+01  6.096519740E+01  2.447980725E+01  1.135354743E+02  7.887262755E+01  0.00000E+00  9.000E+00
     -11     1     6     6     0     0  1.799962210E+01  3.232999350E+01  5.172863825E+01  6.360084033E+01  0.000000000E+00  0.00000E+00  9.000E+00
      12     1     6     6     0     0  3.051219388E+01  2.863520389E+01 -2.724883100E+01  4.993463396E+01  1.305872339E-06  0.00000E+00  9.000E+00
      13     1     5     5     0     0 -1.126501320E+01 -3.055542455E+01 -2.949545619E+01  4.393764249E+01  0.000000000E+00  0.00000E+00  9.000E+00
     -14     1     5     5     0     0 -4.453954758E+01 -5.547727236E+01  3.635010577E+01  7.989261065E+01  2.185142372E-06  0.00000E+00  9.000E+00
       5     1     4     4   514     0  2.662431192E+01 -2.121270633E+01 -1.564042140E+02  1.601364217E+02  4.750000000E+00  0.00000E+00  9.000E+00
      -5     1     3     3     0   511 -2.814095523E+00  2.044448061E+01  2.754014597E+01  3.474072626E+01  4.750000000E+00  0.00000E+00  9.000E+00
      21     1     1     2   501   512 -2.109578586E+01  9.613866267E+00 -1.225135160E+03  1.225354487E+03  2.642899792E-05  0.00000E+00  9.000E+00
      21     1     3     3   511   501  5.426835978E+00  1.605508059E+01  3.901719251E+01  4.253889365E+01  1.907348633E-06  0.00000E+00  9.000E+00
      21     1     4     4   507   514 -8.485217143E-01  1.667783815E-01 -3.026146464E+00  3.147279229E+00  4.214684851E-08  0.00000E+00  9.000E+00
#rwgt            1          17   20.269801324569013                1     8215534           0       11110           0
<weights>
0.11233E+02
</weights>
</event>
<event>
     13  10001  1.35503E+01  6.37095E+01 -1.00000E+00  1.33326E-01
      21    -1     0     0   511   501  0.000000000E+00  0.000000000E+00  1.846118763E+02  1.846118763E+02  0.000000000E+00  0.00000E+00  9.000E+00
       2    -1     0     0   507     0  0.000000000E+00  0.000000000E+00 -2.934663658E+02  2.934663658E+02  0.000000000E+00  0.00000E+00  9.000E+00
      -6     2     1     2     0   501 -5.599304559E+01  9.767206802E+00 -2.385066852E+01  1.841626834E+02  1.735408312E+02  0.00000E+00  9.000E+00
       6     2     1     2   507     0 -1.930415257E+00 -3.629589937E+01 -1.270944391E+02  2.175577237E+02  1.727924994E+02  0.00000E+00  9.000E+00
     -24     2     3     3     0     0 -7.818827176E+01 -4.497450586E+01 -2.747731707E+01  1.247909877E+02  8.174151723E+01  0.00000E+00  9.000E+00
      24     2     4     4     0     0 -2.505300913E+01  9.386810044E+00 -1.413902386E+02  1.641864142E+02  7.905829224E+01  0.00000E+00  9.000E+00
     -11     1     6     6     0     0  2.262479357E+01  1.686761618E+01 -8.704487310E+01  9.150523315E+01  0.000000000E+00  0.00000E+00  9.000E+00
      12     1     6     6     0     0 -4.767780270E+01 -7.480806140E+00 -5.434536551E+01  7.268118108E+01  1.784161275E-06  0.00000E+00  9.000E+00
      13     1     5     5     0     0  2.828174323E+00  1.198254910E+01  1.290877886E+01  1.783862732E+01  0.000000000E+00  0.00000E+00  9.000E+00
     -14     1     5     5     0     0 -8.101644608E+01 -5.695705496E+01 -4.038609593E+01  1.069523604E+02  2.654916936E-06  0.00000E+00  9.000E+00
       5     1     4     4   507     0  2.312259387E+01 -4.568270942E+01  1.429579951E+01  5.337130944E+01  4.750000000E+00  0.00000E+00  9.000E+00
      -5     1     3     3     0   501  2.219522617E+01  5.474171267E+01  3.626648548E+00  5.937169570E+01  4.750000000E+00  0.00000E+00  9.000E+00
       2     1     1     2   511     0  5.792346084E+01  2.652869257E+01  4.209061813E+01  7.635783510E+01  0.000000000E+00  0.00000E+00  9.000E+00
#rwgt            2          93   1.1032405489414341E-002           1     8226984           0           1           0
<weights>
0.13550E+02
</weights>
</event>
<event>
     15  10001  1.35503E+01  1.34430E+01 -1.00000E+00  3.60824E-01
      21    -1     0     0   507   512  0.000000000E+00  0.000000000E+00  4.315262849E+01  4.315262849E+01  0.000000000E+00  0.00000E+00  9.000E+00
      -3    -1     0     0     0   502  0.000000000E+00  0.000000000E+00 -1.625827876E+03  1.625827876E+03  0.000000000E+00  0.00000E+00  9.000E+00
      -6     2     1     2     0   502  7.698498060E+01  4.123059352E+01 -1.023143513E+03  1.041293407E+03  1.727502917E+02  0.00000E+00  9.000E+00
       6     2     1     2   507     0 -8.718204394E+01 -4.999034259E+01 -5.739563112E+02  6.079695487E+02  1.734974981E+02  0.00000E+00  9.000E+00
     -24     2     3     3     0     0  6.322802886E+01 -1.882164315E+01 -3.549239523E+02  3.702079201E+02  8.204178403E+01  0.00000E+00  9.000E+00
      24     2     4     4     0     0 -2.019721931E+01 -6.382002352E+01 -4.828451392E+02  4.938847854E+02  7.938406428E+01  0.00000E+00  9.000E+00
     -11     1     6     6     0     0 -4.211752416E+01 -5.684095143E+01 -2.473277999E+02  2.572466136E+02  0.000000000E+00  0.00000E+00  9.000E+00
      12     1     6     6     0     0  2.192030485E+01 -6.979072095E+00 -2.355173394E+02  2.366381718E+02  6.607249480E-06  0.00000E+00  9.000E+00
      13     1     5     5     0     0 -1.346766854E+01 -1.098351002E+01 -1.986521908E+01  2.639398639E+01  0.000000000E+00  0.00000E+00  9.000E+00
     -14     1     5     5     0     0  7.669569740E+01 -7.838133128E+00 -3.350587332E+02  3.438139337E+02  5.394796609E-06  0.00000E+00  9.000E+00
       5     1     4     4   511     0 -5.872777560E+01  1.317579744E+01 -8.036518357E+01  1.005170557E+02  4.750000000E+00  0.00000E+00  9.000E+00
      -5     1     3     3     0   513  1.098186211E+01  4.882881431E+01 -5.587431915E+02  5.610003306E+02  4.750000000E+00  0.00000E+00  9.000E+00
      -3     1     1     2     0   512  1.019706334E+01  8.759749072E+00  1.442457658E+01  1.971754838E+01  0.000000000E+00  0.00000E+00  9.000E+00
      21     1     3     3   513   502  2.775089625E+00  1.122342236E+01 -1.094763688E+02  1.100851564E+02  0.000000000E+00  0.00000E+00  9.000E+00
      21     1     4     4   507   511 -8.257049040E+00  6.538834933E-01 -1.074598839E+01  1.356770758E+01  0.000000000E+00  0.00000E+00  9.000E+00
#rwgt            1          16  0.10904322802109546                1     8227518           0       11110           0
<weights>
0.10763E+02
</weights>
</event>
<event>
     15  10001  1.35503E+01  1.32877E+02 -1.00000E+00  1.70682E-01
      21    -1     0     0   507   501  0.000000000E+00  0.000000000E+00  7.788028343E+01  7.788028343E+01  0.000000000E+00  0.00000E+00  9.000E+00
      21    -1     0     0   511   502  0.000000000E+00  0.000000000E+00 -1.446543997E+03  1.446543997E+03  0.000000000E+00  0.00000E+00  9.000E+00
      -6     2     1     2     0   502  2.909078632E+01  8.994443348E+01 -7.473295408E+02  8.296252919E+02  3.476210688E+02  0.00000E+00  9.000E+00
       6     2     1     2   507     0  1.996990253E+01  3.354388098E+01 -3.593959146E+02  4.010848996E+02  1.737230101E+02  0.00000E+00  9.000E+00
     -24     2     3     3     0     0  4.741987825E+01  8.038624225E+00 -2.137196678E+01  9.498200732E+01  7.906678454E+01  0.00000E+00  9.000E+00
      24     2     4     4     0     0 -5.257953610E+01  2.750897765E+01 -1.707165242E+02  1.980330723E+02  8.094204466E+01  0.00000E+00  9.000E+00
     -11     1     6     6     0     0 -2.165256673E+01  5.484279269E+01 -9.548267117E+01  1.122207915E+02  0.000000000E+00  0.00000E+00  9.000E+00
      12     1     6     6     0     0 -3.092696938E+01 -2.733381503E+01 -7.523385308E+01  8.581228076E+01  1.651812370E-06  0.00000E+00  9.000E+00
      13     1     5     5     0     0 -1.315229923E+01  1.330794146E+01 -2.815364630E+01  3.380402462E+01  0.000000000E+00  0.00000E+00  9.000E+00
     -14     1     5     5     0     0  6.057217748E+01 -5.269317232E+00  6.781679521E+00  6.117798269E+01  5.157782472E-06  0.00000E+00  9.000E+00
       5     1     4     4   513     0  7.109217045E+01  5.303076382E+00 -1.882689607E+02  2.013702644E+02  4.750000000E+00  0.00000E+00  9.000E+00
      -5     1     3     3     0   512 -1.662255215E+01  7.914510747E+01 -7.267913375E+02  7.312923274E+02  4.750000000E+00  0.00000E+00  9.000E+00
      21     1     1     2   511   501 -4.906068886E+01 -1.234883145E+02 -2.619382586E+02  2.937140894E+02  5.394796609E-06  0.00000E+00  9.000E+00
      21     1     3     3   512   502 -1.706539777E+00  2.760701782E+00  8.337635653E-01  3.350957180E+00  2.407356265E-07  0.00000E+00  9.000E+00
      21     1     4     4   507   513  1.457268188E+00  7.318269411E-01 -4.104296910E-01  1.681562896E+00  7.068241373E-08  0.00000E+00  9.000E+00
#rwgt            1          17   2.4038207826915210                1     8228634           0       11110           0
<weights>
0.20686E+02
</weights>
</event>
<event>
     14  10001  1.35503E+01  3.06043E+01 -1.00000E+00  6.15250E-01
      21    -1     0     0   502   512  0.000000000E+00  0.000000000E+00  1.926883845E+02  1.926883845E+02  0.000000000E+00  0.00000E+00  9.000E+00
      21    -1     0     0   507   502  0.000000000E+00  0.000000000E+00 -3.792987322E+02  3.792987322E+02  0.000000000E+00  0.00000E+00  9.000E+00
      -6     2     1     2     0   501  7.680312913E+01  7.726015854E+01  7.438507397E+01  2.170163768E+02  1.723227084E+02  0.00000E+00  9.000E+00
       6     2     1     2   507     0 -4.632067571E+01 -7.998882635E+01 -1.666289508E+02  2.557656170E+02  1.706078142E+02  0.00000E+00  9.000E+00
     -24     2     3     3     0     0  7.444231967E+01  1.185953634E+02  5.922593766E+01  1.723841144E+02  8.125301247E+01  0.00000E+00  9.000E+00
      24     2     4     4     0     0 -4.241633184E+00 -1.118919366E+02 -1.009850203E+02  1.713846810E+02  8.146740213E+01  0.00000E+00  9.000E+00
     -11     1     6     6     0     0 -4.006536916E+00  1.264879343E+01 -1.510064394E+01  2.010158602E+01  0.000000000E+00  0.00000E+00  9.000E+00
      12     1     6     6     0     0 -2.350962675E-01 -1.245407300E+02 -8.588437641E+01  1.512830949E+02  2.697398305E-06  0.00000E+00  9.000E+00
      13     1     5     5     0     0  2.598554490E+01  2.910828914E-01  3.278445152E+01  4.183483637E+01  0.000000000E+00  0.00000E+00  9.000E+00
     -14     1     5     5     0     0  4.845677476E+01  1.183042805E+02  2.644148614E+01  1.305492781E+02  3.455013453E-06  0.00000E+00  9.000E+00
       5     1     4     4   507     0 -4.207904253E+01  3.190311024E+01 -6.564393045E+01  8.438093605E+01  4.750000000E+00  0.00000E+00  9.000E+00
      -5     1     3     3     0   511  1.328668987E+00 -3.958239342E+01  1.390536881E+01  4.224278651E+01  4.750000000E+00  0.00000E+00  9.000E+00
      21     1     1     2   501   512 -3.048245342E+01  2.728667812E+00 -9.436647086E+01  9.920512294E+01  2.336015456E-06  0.00000E+00  9.000E+00
      21     1     3     3   511   501  1.032140478E+00 -1.752811455E+00  1.253767505E+00  2.389475867E+00  4.942156062E-08  0.00000E+00  9.000E+00
#rwgt            1          17   17.280145386669346                1     8236330           0         111           0
<weights>
0.16673E+02
</weights>
</event>
<event>
     14  10001  1.35503E+01  1.15891E+01 -1.00000E+00  7.52576E-01
      21    -1     0     0   502   511  0.000000000E+00  0.000000000E+00  1.230844523E+02  1.230844523E+02  0.000000000E+00  0.00000E+00  9.000E+00
      21    -1     0     0   507   502  0.000000000E+00  0.000000000E+00 -5.342747337E+02  5.342747337E+02  0.000000000E+00  0.00000E+00  9.000E+00
      -6     2     1     2     0   501  4.049316351E+00 -7.617102798E+01 -1.274188051E+02  2.961045668E+02  2.561717005E+02  0.00000E+00  9.000E+00
       6     2     1     2   507     0 -1.416071719E+01  8.183378095E+01 -1.916891050E+02  2.684458357E+02  1.685857649E+02  0.00000E+00  9.000E+00
     -24     2     3     3     0     0  8.378470596E+00 -8.037479240E+01 -1.958088942E+02  2.272846569E+02  8.238256009E+01  0.00000E+00  9.000E+00
      24     2     4     4     0     0  4.767595739E+01  7.949584164E+01 -1.403926263E+02  1.864703251E+02  8.042702813E+01  0.00000E+00  9.000E+00
     -11     1     6     6     0     0 -3.607542668E+00  5.460408563E+01 -1.075740993E+02  1.206930295E+02  0.000000000E+00  0.00000E+00  9.000E+00
      12     1     6     6     0     0  5.128350006E+01  2.489175601E+01 -3.281852704E+01  6.577729557E+01  6.743495762E-07  0.00000E+00  9.000E+00
      13     1     5     5     0     0  1.314489105E+01 -8.442715643E+01 -2.014746775E+02  2.188441879E+02  0.000000000E+00  0.00000E+00  9.000E+00
     -14     1     5     5     0     0 -4.766420453E+00  4.052364022E+00  5.665783265E+00  8.440469069E+00  6.743495762E-07  0.00000E+00  9.000E+00
       5     1     4     4   512     0 -5.857713859E+01  5.120320372E+00 -4.431122307E+01  7.378038924E+01  4.750000000E+00  0.00000E+00  9.000E+00
      -5     1     3     3     0   501 -4.329154245E+00  4.203764420E+00  6.839008909E+01  6.881990989E+01  4.750000000E+00  0.00000E+00  9.000E+00
      21     1     1     2   501   511  1.011140084E+01 -5.662752967E+00 -9.208237126E+01  9.280878350E+01  1.348699152E-06  0.00000E+00  9.000E+00
      21     1     4     4   507   512 -3.259535991E+00 -2.782381062E+00 -6.985255548E+00  8.195121373E+00  8.429369702E-08  0.00000E+00  9.000E+00
#rwgt            1          17   11834.122913513660                1     8249483           0         110           0
<weights>
0.14154E+02
</weights>
</event>
<event>
     15  10001  1.35503E+01  2.00772E+01 -1.00000E+00  3.33373E-01
      21    -1     0     0   512   501  0.000000000E+00  0.000000000E+00  7.115955757E+02  7.115955757E+02  0.000000000E+00  0.00000E+00  9.000E+00
      21    -1     0     0   507   502  0.000000000E+00  0.000000000E+00 -9.329657179E+02  9.329657179E+02  0.000000000E+00  0.00000E+00  9.000E+00
      -6     2     1     2     0   501  5.701779181E+01 -8.454179391E+01  1.328930310E+02  2.409213429E+02  1.731594417E+02  0.00000E+00  9.000E+00
       6     2     1     2   507     0 -4.854651363E+01  6.633929848E+01 -8.685724341E+02  8.889389605E+02  1.704016896E+02  0.00000E+00  9.000E+00
     -24     2     3     3     0     0 -2.762141463E+01 -8.557577160E+00  3.650164946E+01  9.144567770E+01  7.870048846E+01  0.00000E+00  9.000E+00
      24     2     4     4     0     0 -9.260752780E+01  2.356303818E+01 -6.265124342E+02  6.388439044E+02  8.045081072E+01  0.00000E+00  9.000E+00
     -11     1     6     6     0     0 -4.815817807E+01  4.378537439E+01 -2.205111711E+02  2.299163885E+02  0.000000000E+00  0.00000E+00  9.000E+00
      12     1     6     6     0     0 -4.444934973E+01 -2.022233621E+01 -4.060012631E+02  4.089275159E+02  5.394796609E-06  0.00000E+00  9.000E+00
      13     1     5     5     0     0  1.584250995E+01  8.633147781E+00 -1.384918185E+01  2.274458617E+01  0.000000000E+00  0.00000E+00  9.000E+00
     -14     1     5     5     0     0 -4.346392458E+01 -1.719072494E+01  5.035083131E+01  6.870109153E+01  2.431401974E-06  0.00000E+00  9.000E+00
       5     1     4     4   511     0  3.874818788E+01  3.920466841E+01 -1.984598246E+02  2.060274074E+02  4.750000000E+00  0.00000E+00  9.000E+00
      -5     1     3     3     0   514  8.006202345E+01 -7.136609752E+01  9.347756734E+01  1.423505025E+02  4.750000000E+00  0.00000E+00  9.000E+00
      21     1     1     2   512   502 -8.471278178E+00  1.820249543E+01  5.143092609E+02  5.147009902E+02  7.629394531E-06  0.00000E+00  9.000E+00
      21     1     4     4   507   511  5.312826294E+00  3.571591883E+00 -4.360017523E+01  4.406764882E+01  8.259061849E-07  0.00000E+00  9.000E+00
      21     1     3     3   514   501  4.577182987E+00 -4.618119229E+00  2.913814243E+00  7.125162648E+00  7.300048300E-08  0.00000E+00  9.000E+00
#rwgt            1          17   46.887990240033339                1     8260509           0       11011           0
<weights>
0.15222E+02
</weights>
</event>
<event>
     15  10001  1.35503E+01  9.21208E+01 -1.00000E+00  2.91276E-01
      21    -1     0     0   507   501  0.000000000E+00  0.000000000E+00  2.412252286E+02  2.412252286E+02  0.000000000E+00  0.00000E+00  9.000E+00
       2    -1     0     0   501     0  0.000000000E+00  0.000000000E+00 -7.254934167E+02  7.254934167E+02  0.000000000E+00  0.00000E+00  9.000E+00
      -6     2     1     2     0   502  1.863755191E+01  9.031301357E+01 -1.316487408E+01  1.961020848E+02  1.725656831E+02  0.00000E+00  9.000E+00
       6     2     1     2   507     0  4.726094237E+01 -2.594191848E+01  9.040451026E+01  2.016022496E+02  1.719415940E+02  0.00000E+00  9.000E+00
     -24     2     3     3     0     0  7.289552467E+00  1.228331965E+02  1.819667064E+01  1.477378851E+02  7.971343744E+01  0.00000E+00  9.000E+00
      24     2     4     4     0     0  2.594948568E+00  5.573166272E+01  5.571647694E+01  1.016054106E+02  6.408261603E+01  0.00000E+00  9.000E+00
     -11     1     6     6     0     0 -7.332812752E+00  5.109729799E+01  7.503541960E+00  5.216327393E+01  0.000000000E+00  0.00000E+00  9.000E+00
      12     1     6     6     0     0  9.927761320E+00  4.634364724E+00  4.821293498E+01  4.944213669E+01  1.168007728E-06  0.00000E+00  9.000E+00
      13     1     5     5     0     0 -2.676921264E+01  1.012186291E+02  2.275458228E+01  1.071427676E+02  0.000000000E+00  0.00000E+00  9.000E+00
     -14     1     5     5     0     0  3.405876511E+01  2.161456743E+01 -4.557911643E+00  4.059511750E+01  1.002705326E-06  0.00000E+00  9.000E+00
       5     1     4     4   511     0  4.292388738E+01 -7.742564080E+01  3.517801260E+01  9.537947909E+01  4.750000000E+00  0.00000E+00  9.000E+00
      -5     1     3     3     0   512  9.773342551E+00 -3.277592740E+01 -2.735805072E+01  4.405456935E+01  4.750000000E+00  0.00000E+00  9.000E+00
       2     1     1     2   502     0 -6.589849428E+01 -6.437109509E+01 -5.615078243E+02  5.690143110E+02  0.000000000E+00  0.00000E+00  9.000E+00
      21     1     3     3   512   502  1.574656890E+00  2.557444242E-01 -4.003494005E+00  4.309630353E+00  5.960464478E-08  0.00000E+00  9.000E+00
      21     1     4     4   507   511  1.742106418E+00 -4.247940399E+00 -4.899792805E-01  4.617359863E+00  1.192092896E-07  0.00000E+00  9.000E+00
#rwgt            1          17   67.975306901317623                1     8266728           0       11110           0
<weights>
0.13581E+02
</weights>
</event>
<event>
     15  10001  1.35503E+01  1.25495E+02 -1.00000E+00  1.76704E-01
       1    -1     0     0   507     0  0.000000000E+00  0.000000000E+00  2.790866211E+03  2.790866211E+03  0.000000000E+00  0.00000E+00  9.000E+00
      21    -1     0     0   501   502  0.000000000E+00  0.000000000E+00 -1.575924352E+02  1.575924352E+02  0.000000000E+00  0.00000E+00  9.000E+00
      -6     2     1     2     0   502 -2.113695648E+02  8.626980109E+01 -9.206885724E-01  2.862372235E+02  1.726595754E+02  0.00000E+00  9.000E+00
       6     2     1     2   507     0  8.648100708E+01 -7.395135654E+01  9.012833463E+02  9.247721891E+02  1.730438201E+02  0.00000E+00  9.000E+00
     -24     2     3     3     0     0 -1.296176403E+02  1.802485991E+01 -5.445047092E+01  1.628008735E+02  8.008521956E+01  0.00000E+00  9.000E+00
      24     2     4     4     0     0  1.010041823E+02 -1.075603413E+02  7.581802339E+02  7.765506575E+02  8.014102957E+01  0.00000E+00  9.000E+00
     -11     1     6     6     0     0  5.323838472E+01 -4.170996463E+00  2.119763800E+02  2.185994247E+02  0.000000000E+00  0.00000E+00  9.000E+00
      12     1     6     6     0     0  4.776579757E+01 -1.033893449E+02  5.462038540E+02  5.579512328E+02  7.629394531E-06  0.00000E+00  9.000E+00
      13     1     5     5     0     0 -3.825566343E+01 -3.128467477E+01 -1.382727303E+01  5.131686019E+01  0.000000000E+00  0.00000E+00  9.000E+00
     -14     1     5     5     0     0 -9.136197684E+01  4.930953468E+01 -4.062319789E+01  1.114840133E+02  6.143617023E-06  0.00000E+00  9.000E+00
       5     1     4     4   512     0 -1.302779945E+01  3.159693916E+01  1.165577331E+02  1.215580428E+02  4.750000000E+00  0.00000E+00  9.000E+00
      -5     1     3     3     0   511 -8.239636801E+01  5.816227894E+01  5.047244246E+01  1.128806542E+02  4.750000000E+00  0.00000E+00  9.000E+00
       1     1     1     2   501     0  1.248885577E+02 -1.231844455E+01  1.732911118E+03  1.737449234E+03  0.000000000E+00  0.00000E+00  9.000E+00
      21     1     3     3   511   502  6.444435428E-01  1.008266224E+01  3.057339884E+00  1.055569574E+01  4.786961795E-07  0.00000E+00  9.000E+00
      21     1     4     4   507   512 -1.495375753E+00  2.012045641E+00  2.654537924E+01  2.666348881E+01  3.371747881E-07  0.00000E+00  9.000E+00
#rwgt            1          17   23.097732299955069                1     8273808           0       11110           0
<weights>
0.22554E+02
</weights>
</event>
<event>
     14  10001 -1.35503E+01  2.21991E+01 -1.00000E+00  2.61956E-01
      21    -1     0     0   502   511  0.000000000E+00  0.000000000E+00  4.523905043E+02  4.523905043E+02  0.000000000E+00  0.00000E+00  9.000E+00
      21    -1     0     0   507   502  0.000000000E+00  0.000000000E+00 -1.409380446E+02  1.409380446E+02  0.000000000E+00  0.00000E+00  9.000E+00
      -6     2     1     2     0   501  1.688768734E+01 -3.222387311E+01  3.581591650E+02  3.971087640E+02  1.676120849E+02  0.00000E+00  9.000E+00
       6     2     1     2   507     0 -1.823305200E+01  1.006560093E+01 -3.314609377E+01  1.702065341E+02  1.656437147E+02  0.00000E+00  9.000E+00
     -24     2     3     3     0     0 -5.222177813E+01 -3.456677840E+01  2.192185916E+02  2.416802362E+02  8.019083114E+01  0.00000E+00  9.000E+00
      24     2     4     4     0     0 -4.253488963E+01  5.913628229E+01 -4.158005753E+00  1.080665081E+02  7.971677642E+01  0.00000E+00  9.000E+00
     -11     1     6     6     0     0  8.872249161E-01  2.054494683E+00 -3.130162844E+01  3.138152417E+01  0.000000000E+00  0.00000E+00  9.000E+00
      12     1     6     6     0     0 -4.342211454E+01  5.708178761E+01  2.714362269E+01  7.668498393E+01  2.311553887E-06  0.00000E+00  9.000E+00
      13     1     5     5     0     0 -5.433008739E+00 -3.414406663E+01  1.711172306E+02  1.745750311E+02  0.000000000E+00  0.00000E+00  9.000E+00
     -14     1     5     5     0     0 -4.678876939E+01 -4.227117705E-01  4.810136099E+01  6.710520513E+01  1.348699152E-06  0.00000E+00  9.000E+00
       5     1     4     4   507     0  2.430183763E+01 -4.907068137E+01 -2.898808802E+01  6.214002598E+01  4.750000000E+00  0.00000E+00  9.000E+00
      -5     1     3     3     0   512  5.235980055E+01  4.344560778E-01  1.104181472E+02  1.222966361E+02  4.750000000E+00  0.00000E+00  9.000E+00
      21     1     1     2   501   511  1.345364659E+00  2.215827218E+01 -1.356061146E+01  2.601325077E+01  7.539457465E-07  0.00000E+00  9.000E+00
      21     1     3     3   512   501  1.674966492E+01  1.908449212E+00  2.852242610E+01  3.313189165E+01  0.000000000E+00  0.00000E+00  9.000E+00
#rwgt            1          17  -2.6834531644541495                1     8279100           0         111           0
<weights>
-.13274E+02
</weights>
</event>
<event>
     13  10001  1.35503E+01  1.74582E+02 -1.00000E+00  1.13840E-01
      21    -1     0     0   512   501  0.000000000E+00  0.000000000E+00  1.659733298E+02  1.659733298E+02  0.000000000E+00  0.00000E+00  9.000E+00
      21    -1     0     0   501   502  0.000000000E+00  0.000000000E+00 -2.832467732E+03  2.832467732E+03  0.000000000E+00  0.00000E+00  9.000E+00
      -6     2     1     2     0   502 -2.485320115E+02 -2.394594774E+02 -1.893240640E+03  1.936926870E+03  2.195827308E+02  0.00000E+00  9.000E+00
       6     2     1     2   507     0  3.293321609E+02  8.470139380E+01 -7.989606050E+02  8.850501152E+02  1.712940740E+02  0.00000E+00  9.000E+00
     -24     2     3     3     0     0 -2.363594829E+02 -2.059747416E+02 -1.203368893E+03  1.246119380E+03  8.015870121E+01  0.00000E+00  9.000E+00
      24     2     4     4     0     0  2.161850726E+02  1.242263739E+02 -5.590010109E+02  6.167822324E+02  7.596061120E+01  0.00000E+00  9.000E+00
     -11     1     6     6     0     0  1.051934423E+02  5.108189685E+01 -3.506898442E+02  3.696733522E+02  0.000000000E+00  0.00000E+00  9.000E+00
      12     1     6     6     0     0  1.109916303E+02  7.314447705E+01 -2.083111667E+02  2.471088803E+02  7.136645101E-06  0.00000E+00  9.000E+00
      13     1     5     5     0     0 -9.782319107E+01 -3.602768861E+01 -4.019779001E+02  4.152753342E+02  0.000000000E+00  0.00000E+00  9.000E+00
     -14     1     5     5     0     0 -1.385362919E+02 -1.699470530E+02 -8.013909930E+02  8.308440459E+02  1.525878906E-05  0.00000E+00  9.000E+00
       5     1     4     4   507     0  1.131470884E+02 -3.952498009E+01 -2.399595941E+02  2.682678828E+02  4.750000000E+00  0.00000E+00  9.000E+00
      -5     1     3     3     0   502 -1.217252860E+01 -3.348473583E+01 -6.898717468E+02  6.908074895E+02  4.750000000E+00  0.00000E+00  9.000E+00
      21     1     1     2   512   507 -8.080014940E+01  1.547580836E+02  2.570684298E+01  1.764640767E+02  4.238221368E-06  0.00000E+00  9.000E+00
#rwgt            2         113   14.501941186907072                1     8328383           0           1           0
<weights>
0.13550E+02
</weights>
</event>
<event>
     15  10001  1.35503E+01  3.76263E+01 -1.00000E+00  2.23639E-01
      21    -1     0     0   507   511  0.000000000E+00  0.000000000E+00  3.925625636E+02  3.925625636E+02  0.000000000E+00  0.00000E+00  9.000E+00
      21    -1     0     0   501   502  0.000000000E+00  0.000000000E+00 -1.313644228E+02  1.313644228E+02  0.000000000E+00  0.00000E+00  9.000E+00
      -6     2     1     2     0   502  7.830980876E+01 -5.990982809E+01  1.029882015E+02  2.234139252E+02  1.720046472E+02  0.00000E+00  9.000E+00
       6     2     1     2   507     0 -9.398855677E+01  9.411384607E+01  1.302773160E+02  2.536518894E+02  1.722667614E+02  0.00000E+00  9.000E+00
     -24     2     3     3     0     0  2.813674800E+01 -5.826226348E+01 -5.541026085E+00  1.033955958E+02  8.045979323E+01  0.00000E+00  9.000E+00
      24     2     4     4     0     0 -2.808711475E+01  6.766520367E+01  4.611195905E+00  1.091083514E+02  8.072114602E+01  0.00000E+00  9.000E+00
     -11     1     6     6     0     0 -5.306088094E+01  2.749348935E+01 -7.636473932E+00  6.024669930E+01  0.000000000E+00  0.00000E+00  9.000E+00
      12     1     6     6     0     0  2.497376619E+01  4.017171432E+01  1.224766984E+01  4.886165210E+01  5.331201500E-07  0.00000E+00  9.000E+00
      13     1     5     5     0     0 -9.677166429E+00  4.176384777E+00  2.277807550E+01  2.509841555E+01  0.000000000E+00  0.00000E+00  9.000E+00
     -14     1     5     5     0     0  3.781391443E+01 -6.243864826E+01 -2.831910158E+01  7.829718025E+01  1.390207266E-06  0.00000E+00  9.000E+00
       5     1     4     4   514     0 -6.526040023E+01  2.625381405E+01  1.227994307E+02  1.415995949E+02  4.750000000E+00  0.00000E+00  9.000E+00
      -5     1     3     3     0   513  3.031526072E+01 -6.772716672E-01  7.500815948E+01  8.104480377E+01  4.750000000E+00  0.00000E+00  9.000E+00
      21     1     1     2   501   511  1.567874802E+01 -3.420401798E+01  2.793262325E+01  4.686117185E+01  3.371747881E-07  0.00000E+00  9.000E+00
      21     1     3     3   513   502  1.985780003E+01 -9.702929376E-01  3.352106809E+01  3.897352558E+01  1.066240300E-06  0.00000E+00  9.000E+00
      21     1     4     4   507   514 -6.410417910E-01  1.948283498E-01  2.866689432E+00  2.943943098E+00  4.214684851E-08  0.00000E+00  9.000E+00
#rwgt            1          17   7.6572416843927487                1     8330838           0       11110           0
<weights>
0.31174E+02
</weights>
</event>
<event>
     15  10001  1.35503E+01  1.67552E+01 -1.00000E+00  7.08597E-01
      21    -1     0     0   502   501  0.000000000E+00  0.000000000E+00  2.195014784E+02  2.195014784E+02  0.000000000E+00  0.00000E+00  9.000E+00
      21    -1     0     0   507   512  0.000000000E+00  0.000000000E+00 -3.566319075E+02  3.566319075E+02  0.000000000E+00  0.00000E+00  9.000E+00
      -6     2     1     2     0   501  1.495876794E+02 -1.149395579E+02 -8.683404965E+00  2.556172007E+02  1.722706474E+02  0.00000E+00  9.000E+00
       6     2     1     2   507     0 -1.568570437E+02  9.984347970E+01 -7.575742387E+01  2.652266817E+02  1.733007583E+02  0.00000E+00  9.000E+00
     -24     2     3     3     0     0  8.291301364E+01 -1.326748088E+02  2.578477415E+01  1.775482122E+02  7.988329217E+01  0.00000E+00  9.000E+00
      24     2     4     4     0     0 -2.855797883E+01  8.478427215E+00  1.037769668E+01  8.527832150E+01  7.922912121E+01  0.00000E+00  9.000E+00
     -11     1     6     6     0     0  4.496776382E-01 -3.247123331E+01  1.311083021E+01  3.502109466E+01  0.000000000E+00  0.00000E+00  9.000E+00
      12     1     6     6     0     0 -2.900765647E+01  4.094966052E+01 -2.733133529E+00  5.025722684E+01  6.893297140E-07  0.00000E+00  9.000E+00
      13     1     5     5     0     0  6.427496721E+01 -7.287814513E+01 -2.094343504E+01  9.940383755E+01  0.000000000E+00  0.00000E+00  9.000E+00
     -14     1     5     5     0     0  1.863804643E+01 -5.979666364E+01  4.672820919E+01  7.814437466E+01  1.784161275E-06  0.00000E+00  9.000E+00
       5     1     4     4   511     0 -1.267905077E+02  8.880638072E+01 -8.334489063E+01  1.758730775E+02  4.750000000E+00  0.00000E+00  9.000E+00
      -5     1     3     3     0   513  6.653509661E+01  1.840787331E+01 -3.460554697E+01  7.736843841E+01  4.750000000E+00  0.00000E+00  9.000E+00
      21     1     1     2   502   512  7.269364230E+00  1.509607815E+01 -5.268960028E+01  5.528950361E+01  0.000000000E+00  0.00000E+00  9.000E+00
      21     1     4     4   507   511 -1.508557149E+00  2.558671764E+00 -2.790229921E+00  4.075282674E+00  9.884312124E-08  0.00000E+00  9.000E+00
      21     1     3     3   513   501  1.395691779E-01 -6.726223933E-01  1.373678607E-01  7.005500472E-01  3.725290298E-09  0.00000E+00  9.000E+00
#rwgt            1          17   8.2167873289911793                1     8339496           0       11011           0
<weights>
0.18236E+02
</weights>
</event>
<event>
     15  10001 -1.35503E+01  5.17686E+01 -1.00000E+00  3.34936E-01
      21    -1     0     0   507   511  0.000000000E+00  0.000000000E+00  4.754710958E+02  4.754710958E+02  0.000000000E+00  0.00000E+00  9.000E+00
      -2    -1     0     0     0   502  0.000000000E+00  0.000000000E+00 -2.837626679E+02  2.837626679E+02  0.000000000E+00  0.00000E+00  9.000E+00
      -6     2     1     2     0   502 -2.917781408E+02 -5.746939672E+01  2.093288986E+02  4.024079764E+02  1.722683276E+02  0.00000E+00  9.000E+00
       6     2     1     2   507     0  2.495087466E+02  2.758144503E+01 -2.023630593E+01  3.049911084E+02  1.720311523E+02  0.00000E+00  9.000E+00
     -24     2     3     3     0     0 -5.594679023E+01 -4.836823462E+00  2.942745769E+01  1.010047419E+02  7.862915759E+01  0.00000E+00  9.000E+00
      24     2     4     4     0     0  2.101985309E+02  1.711289208E+01  4.315585127E+01  2.292995101E+02  7.899091321E+01  0.00000E+00  9.000E+00
     -11     1     6     6     0     0  6.825586164E+01 -3.062455303E+01  2.253331247E+01  7.813114659E+01  0.000000000E+00  0.00000E+00  9.000E+00
      12     1     6     6     0     0  1.419426693E+02  4.773744511E+01  2.062253881E+01  1.511683636E+02  4.798081350E-06  0.00000E+00  9.000E+00
      13     1     5     5     0     0 -5.684867760E+01 -1.777876239E+01 -9.187906364E+00  6.026835124E+01  0.000000000E+00  0.00000E+00  9.000E+00
     -14     1     5     5     0     0  9.018873753E-01  1.294193893E+01  3.861536405E+01  4.073639067E+01  0.000000000E+00  0.00000E+00  9.000E+00
       5     1     4     4   514     0  3.515535041E+01  7.529088761E+00 -5.599060227E+01  6.670903899E+01  4.750000000E+00  0.00000E+00  9.000E+00
      -5     1     3     3     0   512 -2.189820073E+02 -5.103235254E+01  1.673239187E+02  2.803163870E+02  4.750000000E+00  0.00000E+00  9.000E+00
      -2     1     1     2     0   511  4.226939418E+01  2.988795169E+01  2.615835288E+00  5.183467889E+01  0.000000000E+00  0.00000E+00  9.000E+00
      21     1     3     3   512   502 -1.684934328E+01 -1.600220726E+00  1.257752222E+01  2.108684757E+01  2.384185791E-07  0.00000E+00  9.000E+00
      21     1     4     4   507   514  4.154865291E+00  2.939464188E+00 -7.401554929E+00  8.982559249E+00  1.685873940E-07  0.00000E+00  9.000E+00
#rwgt            1           8 -0.53477451234611761                1     8350476           0       11110           0
<weights>
-.10978E+02
</weights>
</event>
<event>
     15  10001  1.35503E+01  3.82632E+01 -1.00000E+00  1.99719E-01
      21    -1     0     0   507   501  0.000000000E+00  0.000000000E+00  2.106273656E+02  2.106273656E+02  0.000000000E+00  0.00000E+00  9.000E+00
       1    -1     0     0   501     0  0.000000000E+00  0.000000000E+00 -1.249097711E+03  1.249097711E+03  0.000000000E+00  0.00000E+00  9.000E+00
      -6     2     1     2     0   502  4.178755116E-01  7.563307695E+01 -6.223628564E+02  6.515307870E+02  1.773028606E+02  0.00000E+00  9.000E+00
       6     2     1     2   507     0  2.661478475E+01 -1.027127746E+02  1.446050785E+02  2.461776902E+02  1.686255188E+02  0.00000E+00  9.000E+00
     -24     2     3     3     0     0 -2.289675052E+01 -1.697877206E+01 -3.824982142E+02  3.916495339E+02  7.919554063E+01  0.00000E+00  9.000E+00
      24     2     4     4     0     0 -4.349532332E+01 -8.372245278E+01  6.803072067E+01  1.404234285E+02  7.867190131E+01  0.00000E+00  9.000E+00
     -11     1     6     6     0     0 -2.628489417E+01 -4.063187601E+01 -1.021057043E+01  4.945807071E+01  0.000000000E+00  0.00000E+00  9.000E+00
      12     1     6     6     0     0 -1.721042915E+01 -4.309057677E+01  7.824129110E+01  9.096535775E+01  3.568322551E-06  0.00000E+00  9.000E+00
      13     1     5     5     0     0  9.956649728E+00  2.486995956E+01 -7.636636195E+01  8.092880204E+01  0.000000000E+00  0.00000E+00  9.000E+00
     -14     1     5     5     0     0 -3.285340025E+01 -4.184873162E+01 -3.061318522E+02  3.107207318E+02  7.629394531E-06  0.00000E+00  9.000E+00
       5     1     4     4   512     0  6.551135199E+01 -1.770469869E+01  7.304475129E+01  9.981629018E+01  4.750000000E+00  0.00000E+00  9.000E+00
      -5     1     3     3     0   511  2.457172830E+01  8.530140642E+01 -1.937093857E+02  2.131337336E+02  4.750000000E+00  0.00000E+00  9.000E+00
       1     1     1     2   502     0 -2.703266026E+01  2.707969765E+01 -5.607125676E+02  5.620165996E+02  0.000000000E+00  0.00000E+00  9.000E+00
      21     1     3     3   511   502 -1.257102272E+00  7.310442593E+00 -4.615525650E+01  4.674751950E+01  1.348699152E-06  0.00000E+00  9.000E+00
      21     1     4     4   507   512  4.598756083E+00 -1.285623144E+00  3.529606514E+00  5.937971583E+00  1.519626234E-07  0.00000E+00  9.000E+00
#rwgt            1          17   16.631894460972433                1     8354184           0       11110           0
<weights>
0.21296E+02
</weights>
</event>
<event>
     15  10001  1.35503E+01  5.01582E+00 -1.00000E+00  1.41098E-01
      21    -1     0     0   513   501  0.000000000E+00  0.000000000E+00  8.484688656E+02  8.484688656E+02  0.000000000E+00  0.00000E+00  9.000E+00
      21    -1     0     0   507   502  0.000000000E+00  0.000000000E+00 -6.037265481E+01  6.037265481E+01  0.000000000E+00  0.00000E+00  9.000E+00
      -6     2     1     2     0   501 -1.645045627E+01 -9.031262720E+01  5.047459946E+02  5.413585776E+02  1.728398169E+02  0.00000E+00  9.000E+00
       6     2     1     2   507     0  1.210929490E+01  8.780011150E+01  1.830892349E+02  2.670965753E+02  1.730994454E+02  0.00000E+00  9.000E+00
     -24     2     3     3     0     0 -5.460522697E+01 -6.393663209E+00  2.323395225E+02  2.520346686E+02  8.072924330E+01  0.00000E+00  9.000E+00
      24     2     4     4     0     0 -1.639814959E+01  1.089301174E+02  9.257588607E+01  1.651964944E+02  8.114750331E+01  0.00000E+00  9.000E+00
     -11     1     6     6     0     0  1.193278851E+01  4.808238227E+01 -1.579777735E+00  4.956614393E+01  0.000000000E+00  0.00000E+00  9.000E+00
      12     1     6     6     0     0 -2.833093809E+01  6.084773514E+01  9.415566380E+01  1.156303505E+02  0.000000000E+00  0.00000E+00  9.000E+00
      13     1     5     5     0     0  6.825739664E+00  2.663653279E+01  7.674946286E+01  8.152653342E+01  0.000000000E+00  0.00000E+00  9.000E+00
     -14     1     5     5     0     0 -6.143096663E+01 -3.303019600E+01  1.555900596E+02  1.705081352E+02  2.697398305E-06  0.00000E+00  9.000E+00
       5     1     4     4   512     0  2.162918598E+01 -1.902030930E+01  9.008064615E+01  9.469255073E+01  4.750000000E+00  0.00000E+00  9.000E+00
      -5     1     3     3     0   511  1.226179075E+01 -1.882746832E+01  1.113274945E+02  1.136714503E+02  4.750000000E+00  0.00000E+00  9.000E+00
      21     1     3     3   511   501  2.589297995E+01 -6.509149567E+01  1.610789776E+02  1.756524587E+02  3.303624740E-06  0.00000E+00  9.000E+00
      21     1     4     4   507   512  6.878258505E+00 -2.109696622E+00  4.327027099E-01  7.207530197E+00  2.243849687E-07  0.00000E+00  9.000E+00
      21     1     1     2   513   502  4.341161374E+00  2.512515703E+00  1.002609812E+02  1.003863675E+02  1.907348633E-06  0.00000E+00  9.000E+00
#rwgt            1          17   115.67226456475809                1     8366841           0      111001           0
<weights>
0.13743E+02
</weights>
</event>
<event>
     15  10001 -1.35503E+01  3.71800E+01 -1.00000E+00  1.23673E-01
      21    -1     0     0   502   511  0.000000000E+00  0.000000000E+00  1.987730774E+02  1.987730774E+02  0.000000000E+00  0.00000E+00  9.000E+00
      21    -1     0     0   507   502  0.000000000E+00  0.000000000E+00 -8.531834577E+02  8.531834577E+02  0.000000000E+00  0.00000E+00  9.000E+00
      -6     2     1     2     0   501 -9.086205594E+01  3.750331710E+01  7.526758856E+01  2.119673244E+02  1.720538425E+02  0.00000E+00  9.000E+00
       6     2     1     2   507     0  6.397213674E+01 -6.317985939E+01 -7.646354510E+02  7.889561024E+02  1.723375458E+02  0.00000E+00  9.000E+00
     -24     2     3     3     0     0 -4.654288353E+01  6.818179123E+01  9.041465783E+01  1.464030924E+02  8.027489304E+01  0.00000E+00  9.000E+00
      24     2     4     4     0     0  9.656316605E+01 -8.690250604E+01 -5.765462161E+02  5.964099642E+02  8.014247005E+01  0.00000E+00  9.000E+00
     -11     1     6     6     0     0  3.638002956E+01 -8.494887526E+01 -3.449678842E+02  3.571311511E+02  0.000000000E+00  0.00000E+00  9.000E+00
      12     1     6     6     0     0  6.018313650E+01 -1.953630777E+00 -2.315783319E+02  2.392788131E+02  3.814697266E-06  0.00000E+00  9.000E+00
      13     1     5     5     0     0 -1.710807672E+01  9.435042326E+00  7.686909134E+01  7.931307280E+01  0.000000000E+00  0.00000E+00  9.000E+00
     -14     1     5     5     0     0 -2.943480681E+01  5.874674891E+01  1.354556648E+01  6.709001961E+01  2.958696758E-06  0.00000E+00  9.000E+00
       5     1     4     4   514     0 -1.835995321E+01  1.569569277E+01 -1.028423567E+02  1.057476027E+02  4.750000000E+00  0.00000E+00  9.000E+00
      -5     1     3     3     0   512  2.061070031E+00  1.066413833E+00  3.508872405E+00  6.345071606E+00  4.750000000E+00  0.00000E+00  9.000E+00
      21     1     3     3   512   501 -4.638024244E+01 -3.174488797E+01 -1.865594167E+01  5.921916041E+01  2.145767212E-06  0.00000E+00  9.000E+00
      21     1     1     2   501   511  2.688991920E+01  2.567654229E+01  3.495748216E+01  5.103310825E+01  8.259061849E-07  0.00000E+00  9.000E+00
      21     1     4     4   507   514 -1.423107610E+01  8.026953884E+00 -8.524687823E+01  8.679853550E+01  9.536743164E-07  0.00000E+00  9.000E+00
#rwgt            1          17  -36.428083490636304                1     8370984           0      110110           0
<weights>
-.10604E+02
</weights>
</event>
<event>
     15  10001  1.35503E+01  4.33920E+01 -1.00000E+00  1.75042E-01
      21    -1     0     0   511   501  0.000000000E+00  0.000000000E+00  3.366213789E+02  3.366213789E+02  0.000000000E+00  0.00000E+00  9.000E+00
      21    -1     0     0   501   502  0.000000000E+00  0.000000000E+00 -5.865725448E+02  5.865725448E+02  0.000000000E+00  0.00000E+00  9.000E+00
      -6     2     1     2     0   502 -2.034557334E+02 -1.740912599E+02 -3.819189064E+02  4.975525828E+02  1.731892588E+02  0.00000E+00  9.000E+00
       6     2     1     2   507     0  2.031848546E+02  2.174824196E+02  7.474182745E+01  3.538244123E+02  1.761325808E+02  0.00000E+00  9.000E+00
     -24     2     3     3     0     0 -2.108496086E+02 -1.798969267E+02 -3.599196496E+02  4.621923318E+02  8.520056162E+01  0.00000E+00  9.000E+00
      24     2     4     4     0     0  5.285909382E+01  2.254019744E+01  2.911100804E+01  1.031040419E+02  8.050371649E+01  0.00000E+00  9.000E+00
     -11     1     6     6     0     0 -1.477379649E+01  2.402688468E+01 -2.727188112E+00  2.833714532E+01  0.000000000E+00  0.00000E+00  9.000E+00
      12     1     6     6     0     0  6.763289031E+01 -1.486687237E+00  3.183819615E+01  7.476689658E+01  2.431401974E-06  0.00000E+00  9.000E+00
      13     1     5     5     0     0 -1.223508480E+02 -1.270444509E+02 -1.641664239E+02  2.409577499E+02  0.000000000E+00  0.00000E+00  9.000E+00
     -14     1     5     5     0     0 -8.849876066E+01 -5.285247573E+01 -1.957532258E+02  2.212345819E+02  3.814697266E-06  0.00000E+00  9.000E+00
       5     1     4     4   513     0  1.302819930E+02  1.717154524E+02  3.613167621E+01  2.186038765E+02  4.750000000E+00  0.00000E+00  9.000E+00
      -5     1     3     3     0   512  1.019384927E+01  1.126789244E+00  1.349930128E+00  1.138283920E+01  4.750000000E+00  0.00000E+00  9.000E+00
      21     1     1     2   511   507  2.708788003E-01 -4.339115965E+01  5.722591298E+01  7.181692856E+01  1.784161275E-06  0.00000E+00  9.000E+00
      21     1     3     3   512   502 -2.799974089E+00  4.678877486E+00 -2.334918687E+01  2.397741180E+01  4.768371582E-07  0.00000E+00  9.000E+00
      21     1     4     4   507   513  2.004376781E+01  2.322676970E+01  9.499143204E+00  3.211649390E+01  4.298152060E-07  0.00000E+00  9.000E+00
#rwgt            1          17   14.799346793090676                1     8377690           0       11110           0
<weights>
0.11294E+02
</weights>
</event>
<event>
     15  10001 -1.35503E+01  6.55929E+00 -1.00000E+00  4.29900E-01
      21    -1     0     0   502   512  0.000000000E+00  0.000000000E+00  5.131681860E+02  5.131681860E+02  0.000000000E+00  0.00000E+00  9.000E+00
      21    -1     0     0   507   502  0.000000000E+00  0.000000000E+00 -2.089167091E+02  2.089167091E+02  0.000000000E+00  0.00000E+00  9.000E+00
      -6     2     1     2     0   501  3.568307155E+00 -5.539767315E+01  4.438142490E+02  4.792807977E+02  1.722131252E+02  0.00000E+00  9.000E+00
       6     2     1     2   507     0 -9.164533598E+00  5.881915363E+01 -1.459716738E+02  2.336335849E+02  1.724332942E+02  0.00000E+00  9.000E+00
     -24     2     3     3     0     0 -5.037592249E+01 -7.721306708E+01  3.083452228E+02  3.316674839E+02  8.016827415E+01  0.00000E+00  9.000E+00
      24     2     4     4     0     0  6.944805572E+00 -7.258540146E+00 -1.393568793E+02  1.628097047E+02  8.358075974E+01  0.00000E+00  9.000E+00
     -11     1     6     6     0     0  4.162202160E+01  4.738026546E+00 -4.456070561E+01  6.115961136E+01  0.000000000E+00  0.00000E+00  9.000E+00
      12     1     6     6     0     0 -3.467721603E+01 -1.199656669E+01 -9.479617371E+01  1.016500933E+02  2.336015456E-06  0.00000E+00  9.000E+00
      13     1     5     5     0     0 -4.224436736E+01  6.329082882E-01  1.353329473E+02  1.417744468E+02  0.000000000E+00  0.00000E+00  9.000E+00
     -14     1     5     5     0     0 -8.131555131E+00 -7.784597537E+01  1.730122755E+02  1.898930371E+02  0.000000000E+00  0.00000E+00  9.000E+00
       5     1     4     4   511     0 -1.628011576E+01  6.361438873E+01 -2.328570413E+00  6.587729019E+01  4.750000000E+00  0.00000E+00  9.000E+00
      -5     1     3     3     0   514  5.098124341E+01  1.924033994E+01  1.270509998E+02  1.383249685E+02  4.750000000E+00  0.00000E+00  9.000E+00
      21     1     1     2   501   512  5.596226443E+00 -3.421480486E+00  6.408901614E+00  9.170512472E+00  1.884864366E-07  0.00000E+00  9.000E+00
      21     1     4     4   507   511  1.707765930E-01  2.463305047E+00 -4.286224028E+00  4.946590019E+00  1.976862425E-07  0.00000E+00  9.000E+00
      21     1     3     3   514   501  2.962986237E+00  2.575053995E+00  8.418026397E+00  9.288345328E+00  0.000000000E+00  0.00000E+00  9.000E+00
#rwgt            1          17  -13.768530183896017                1     8384230           0       11011           0
<weights>
-.10028E+02
</weights>
</event>
<event>
     15  10001  1.35503E+01  6.13090E+01 -1.00000E+00  4.18448E-01
      21    -1     0     0   502   511  0.000000000E+00  0.000000000E+00  1.707827706E+02  1.707827706E+02  0.000000000E+00  0.00000E+00  9.000E+00
      21    -1     0     0   507   502  0.000000000E+00  0.000000000E+00 -1.414272811E+03  1.414272811E+03  0.000000000E+00  0.00000E+00  9.000E+00
      -6     2     1     2     0   501 -1.192244840E+02  1.044027241E+02 -2.141733619E+02  3.177646773E+02  1.731755029E+02  0.00000E+00  9.000E+00
       6     2     1     2   507     0  1.549345062E+02 -5.456707576E+01 -1.127009871E+03  1.151953325E+03  1.728089885E+02  0.00000E+00  9.000E+00
     -24     2     3     3     0     0 -8.755400680E+00  3.130411495E+01 -2.172583618E+01  8.382007587E+01  7.414302737E+01  0.00000E+00  9.000E+00
      24     2     4     4     0     0  1.403092889E+02 -7.370397507E+01 -6.378983061E+02  6.621823073E+02  8.032550473E+01  0.00000E+00  9.000E+00
     -11     1     6     6     0     0  1.068947826E+02 -1.863029154E+01 -3.222364629E+02  3.400145884E+02  0.000000000E+00  0.00000E+00  9.000E+00
      12     1     6     6     0     0  3.341450625E+01 -5.507368353E+01 -3.156618432E+02  3.221677189E+02  0.000000000E+00  0.00000E+00  9.000E+00
      13     1     5     5     0     0 -4.127469976E+01  1.259650840E+01 -1.512211698E+01  4.572692080E+01  0.000000000E+00  0.00000E+00  9.000E+00
     -14     1     5     5     0     0  3.251929908E+01  1.870760655E+01 -6.603719203E+00  3.809315507E+01  1.632340424E-06  0.00000E+00  9.000E+00
       5     1     4     4   513     0  1.434837647E+01  1.960559523E+01 -4.697767521E+02  4.704285436E+02  4.750000000E+00  0.00000E+00  9.000E+00
      -5     1     3     3     0   512 -1.086962811E+02  7.334015657E+01 -1.902896965E+02  2.311414960E+02  4.750000000E+00  0.00000E+00  9.000E+00
      21     1     1     2   501   511 -3.571002213E+01 -4.983564837E+01  9.769319205E+01  1.153375797E+02  3.814697266E-06  0.00000E+00  9.000E+00
      21     1     3     3   512   501 -1.772802272E+00 -2.415473919E-01 -2.157829200E+00  2.803105402E+00  7.300048300E-08  0.00000E+00  9.000E+00
      21     1     4     4   507   513  2.768408180E-01 -4.686959273E-01 -1.933481261E+01  1.934247387E+01  0.000000000E+00  0.00000E+00  9.000E+00
#rwgt            1          17   99.519097069364520                1     8401415           0       11110           0
<weights>
0.12551E+02
</weights>
</event>
<event>
     15  10001 -1.35503E+01  1.48956E+01 -1.00000E+00  3.16138E-01
      -3    -1     0     0     0   501  0.000000000E+00  0.000000000E+00  4.365750021E+02  4.365750021E+02  0.000000000E+00  0.00000E+00  9.000E+00
      21    -1     0     0   501   502  0.000000000E+00  0.000000000E+00 -1.187137678E+03  1.187137678E+03  0.000000000E+00  0.00000E+00  9.000E+00
      -6     2     1     2     0   502  2.489433523E+01  7.093309530E+01 -1.153241686E+03  1.168489091E+03  1.724793861E+02  0.00000E+00  9.000E+00
       6     2     1     2   507     0 -2.599856654E+01 -8.578769849E+01  3.449929312E+02  3.956453870E+02  1.716965199E+02  0.00000E+00  9.000E+00
     -24     2     3     3     0     0  7.644186123E+01  6.973618649E+01 -8.628809683E+02  8.733467989E+02  8.639775347E+01  0.00000E+00  9.000E+00
      24     2     4     4     0     0 -6.273529630E+01 -1.083164138E+02  2.709655873E+02  3.092467732E+02  8.088914838E+01  0.00000E+00  9.000E+00
     -11     1     6     6     0     0 -7.861059463E+00  8.964680088E+00  4.067656186E+00  1.259791934E+01  0.000000000E+00  0.00000E+00  9.000E+00
      12     1     6     6     0     0 -5.487423684E+01 -1.172810939E+02  2.668979311E+02  2.966488539E+02  1.618438983E-05  0.00000E+00  9.000E+00
      13     1     5     5     0     0  8.909830245E+00  5.456859302E+01 -5.567551814E+02  5.594939217E+02  0.000000000E+00  0.00000E+00  9.000E+00
     -14     1     5     5     0     0  6.753203098E+01  1.516759347E+01 -3.061257869E+02  3.138528772E+02  0.000000000E+00  0.00000E+00  9.000E+00
       5     1     4     4   511     0  3.164837239E+01  2.284075644E+01  6.321521094E+01  7.444491268E+01  4.750000000E+00  0.00000E+00  9.000E+00
      -5     1     3     3     0   512 -5.015381991E+01  2.312896223E+00 -2.862799453E+02  2.906880196E+02  4.750000000E+00  0.00000E+00  9.000E+00
      -3     1     1     2     0   507  1.104231315E+00  1.485460319E+01  5.768607828E+01  5.957820230E+01  0.000000000E+00  0.00000E+00  9.000E+00
      21     1     4     4   507   511  5.088357373E+00 -3.120411196E-01  1.081213294E+01  1.195370107E+01  1.192092896E-07  0.00000E+00  9.000E+00
      21     1     3     3   512   502 -1.393706089E+00 -1.115987414E+00 -4.080772112E+00  4.454272735E+00  8.429369702E-08  0.00000E+00  9.000E+00
#rwgt            1          17  -893.11790129711426                1     8410064           0       11011           0
<weights>
-.13660E+02
</weights>
</event>
<event>
     15  10001  1.35503E+01  1.06597E+02 -1.00000E+00  2.46806E-01
      21    -1     0     0   502   501  0.000000000E+00  0.000000000E+00  3.746727597E+02  3.746727597E+02  0.000000000E+00  0.00000E+00  9.000E+00
      21    -1     0     0   511   502  0.000000000E+00  0.000000000E+00 -3.491569262E+02  3.491569262E+02  0.000000000E+00  0.00000E+00  9.000E+00
      -6     2     1     2     0   501  3.987905684E+01 -1.201321274E+02 -1.457649972E+01  1.945827318E+02  1.470642648E+02  0.00000E+00  9.000E+00
       6     2     1     2   507     0  1.644244108E+01  2.106351396E+02 -1.500717541E+02  3.112440035E+02  1.723768617E+02  0.00000E+00  9.000E+00
     -24     2     3     3     0     0 -2.108936172E+01 -7.790951013E+01 -2.527125030E+01  1.166770294E+02  8.037561919E+01  0.00000E+00  9.000E+00
      24     2     4     4     0     0  4.835526155E+01  2.099801274E+02 -9.535317901E+01  2.476086772E+02  7.607853213E+01  0.00000E+00  9.000E+00
     -11     1     6     6     0     0  6.184838730E+00 -5.825086577E+00 -2.016066927E+00  8.732032387E+00  0.000000000E+00  0.00000E+00  9.000E+00
      12     1     6     6     0     0  4.217042282E+01  2.158052140E+02 -9.333711209E+01  2.388766448E+02  4.473129043E-06  0.00000E+00  9.000E+00
      13     1     5     5     0     0  1.830675876E+01 -7.141923420E+01 -1.267274599E+01  7.480937723E+01  0.000000000E+00  0.00000E+00  9.000E+00
     -14     1     5     5     0     0 -3.939612048E+01 -6.490275927E+00 -1.259850430E+01  4.186765221E+01  1.092571186E-06  0.00000E+00  9.000E+00
       5     1     4     4   513     0 -2.367191316E+01  1.562421921E+00 -4.095752851E+01  4.756976220E+01  4.750000000E+00  0.00000E+00  9.000E+00
      -5     1     3     3     0   512  6.108069338E+01 -4.053289350E+01  1.344105613E+01  7.467925448E+01  4.750000000E+00  0.00000E+00  9.000E+00
      21     1     1     2   511   507 -5.632149792E+01 -9.050301214E+01  1.901640873E+02  2.180029505E+02  3.814697266E-06  0.00000E+00  9.000E+00
      21     1     3     3   512   501 -1.122748194E-01 -1.689723793E+00 -2.746305550E+00  3.226447940E+00  5.161913656E-08  0.00000E+00  9.000E+00
      21     1     4     4   507   513 -8.240907316E+00 -9.074097952E-01 -1.376104655E+01  1.606556405E+01  3.769728732E-07  0.00000E+00  9.000E+00
#rwgt            1          17   13.093598787648126                1     8418328           0       11110           0
<weights>
0.11777E+02
</weights>
</event>
<event>
     14  10001 -1.35503E+01  1.08169E+02 -1.00000E+00  5.56831E-01
       2    -1     0     0   507     0  0.000000000E+00  0.000000000E+00  1.965888565E+03  1.965888565E+03  0.000000000E+00  0.00000E+00  9.000E+00
      21    -1     0     0   512   502  0.000000000E+00  0.000000000E+00 -5.824658344E+01  5.824658344E+01  0.000000000E+00  0.00000E+00  9.000E+00
      -6     2     1     2     0   502  1.131486644E+02  1.681771994E+02  1.206596333E+03  1.235620339E+03  1.726172645E+02  0.00000E+00  9.000E+00
       6     2     1     2   507     0 -1.511975007E+01 -1.224512881E+02  2.636762501E+02  3.379679002E+02  1.716805519E+02  0.00000E+00  9.000E+00
     -24     2     3     3     0     0  1.343846690E+02  1.640403716E+02  1.176455737E+03  1.198003227E+03  7.870925598E+01  0.00000E+00  9.000E+00
      24     2     4     4     0     0 -5.413442394E+01 -5.193724541E+01  7.435894190E+01  1.321573546E+02  7.942481233E+01  0.00000E+00  9.000E+00
     -11     1     6     6     0     0  1.578406425E+00 -3.297291242E+01 -4.968853118E+00  3.338253767E+01  0.000000000E+00  0.00000E+00  9.000E+00
      12     1     6     6     0     0 -5.571283036E+01 -1.896433300E+01  7.932779502E+01  9.877481691E+01  1.651812370E-06  0.00000E+00  9.000E+00
      13     1     5     5     0     0  5.383603206E+01  1.028256620E+02  4.588969217E+02  4.733474621E+02  0.000000000E+00  0.00000E+00  9.000E+00
     -14     1     5     5     0     0  8.054863692E+01  6.121470961E+01  7.175588157E+02  7.246557649E+02  1.321449896E-05  0.00000E+00  9.000E+00
       5     1     4     4   507     0  3.901467387E+01 -7.051404271E+01  1.893173082E+02  2.058105456E+02  4.750000000E+00  0.00000E+00  9.000E+00
      -5     1     3     3     0   511 -2.034081517E+01  3.863673148E+00  2.985040450E+01  3.663721988E+01  4.750000000E+00  0.00000E+00  9.000E+00
       2     1     1     2   512     0 -9.802891432E+01 -4.572591125E+01  4.373693986E+02  4.505469097E+02  0.000000000E+00  0.00000E+00  9.000E+00
      21     1     3     3   511   502 -8.951894219E-01  2.731545931E-01  2.901913417E-01  9.798921102E-01  4.956176391E-08  0.00000E+00  9.000E+00
#rwgt            1           8  -7.1106373401176741                1     8424559           0         111           0
<weights>
-.13845E+02
</weights>
</event>
<event>
     14  10001 -1.35503E+01  1.93979E+02 -1.00000E+00  1.28363E-01
      21    -1     0     0   502   501  0.000000000E+00  0.000000000E+00  2.686351406E+02  2.686351406E+02  0.000000000E+00  0.00000E+00  9.000E+00
       1    -1     0     0   507     0  0.000000000E+00  0.000000000E+00 -1.406642280E+03  1.406642280E+03  0.000000000E+00  0.00000E+00  9.000E+00
      -6     2     1     2     0   501  2.392842117E+02 -1.908060981E+02  6.317335752E+01  3.565664097E+02  1.717114743E+02  0.00000E+00  9.000E+00
       6     2     1     2   507     0 -1.039607020E+02  5.182580789E+01 -1.692171909E+02  2.686747076E+02  1.733721399E+02  0.00000E+00  9.000E+00
     -24     2     3     3     0     0  2.280479100E+02 -1.484124243E+02  5.513300752E+01  2.890416737E+02  8.045709212E+01  0.00000E+00  9.000E+00
      24     2     4     4     0     0 -2.260391011E+01  5.975764232E+01 -2.812130193E+01  1.055414677E+02  7.915984593E+01  0.00000E+00  9.000E+00
     -11     1     6     6     0     0 -4.168063919E+01  4.078333802E+01  9.710678417E+00  5.911728697E+01  0.000000000E+00  0.00000E+00  9.000E+00
      12     1     6     6     0     0  1.907672908E+01  1.897430430E+01 -3.783198035E+01  4.642418069E+01  8.259061849E-07  0.00000E+00  9.000E+00
      13     1     5     5     0     0 -6.535416138E+00 -3.018653070E+00  4.381269223E+00  8.427303866E+00  0.000000000E+00  0.00000E+00  9.000E+00
     -14     1     5     5     0     0  2.345833261E+02 -1.453937712E+02  5.075173830E+01  2.806143698E+02  8.609519045E-06  0.00000E+00  9.000E+00
       5     1     4     4   507     0 -8.135679191E+01 -7.931834428E+00 -1.410958890E+02  1.631332400E+02  4.750000000E+00  0.00000E+00  9.000E+00
      -5     1     3     3     0   512  1.581238393E+01  5.617548197E+00  8.256110722E+00  1.929544499E+01  4.750000000E+00  0.00000E+00  9.000E+00
       1     1     1     2   502     0 -1.353235097E+02  1.389802902E+02 -1.031963306E+03  1.050036303E+03  0.000000000E+00  0.00000E+00  9.000E+00
      21     1     3     3   512   501 -4.576082187E+00 -4.801122195E+01 -2.157607151E-01  4.822929104E+01  2.398683442E-06  0.00000E+00  9.000E+00
#rwgt            1          17  -9.0495091138779493                1     8431947           0         111           0
<weights>
-.15509E+02
</weights>
</event>
<event>
     14  10001  1.35503E+01  4.84872E+01 -1.00000E+00  7.48305E-01
      21    -1     0     0   502   501  0.000000000E+00  0.000000000E+00  2.989886697E+02  2.989886697E+02  0.000000000E+00  0.00000E+00  9.000E+00
       1    -1     0     0   507     0  0.000000000E+00  0.000000000E+00 -7.321069910E+02  7.321069910E+02  0.000000000E+00  0.00000E+00  9.000E+00
      -6     2     1     2     0   501 -8.317737639E+00 -6.138094391E+01  1.830679259E+02  2.585594916E+02  1.717624527E+02  0.00000E+00  9.000E+00
       6     2     1     2   507     0 -2.857526398E+01  2.991802679E+01 -2.402152847E+01  1.783896696E+02  1.718551900E+02  0.00000E+00  9.000E+00
     -24     2     3     3     0     0 -1.777686783E+01 -4.303686943E+01  2.128862958E+01  9.539980470E+01  8.049675663E+01  0.00000E+00  9.000E+00
      24     2     4     4     0     0  3.660128244E+01  3.681695250E+01  9.767092718E+00  1.023653560E+02  8.768197154E+01  0.00000E+00  9.000E+00
     -11     1     6     6     0     0 -1.973017290E+01  2.729066515E+01  2.647985669E+01  4.283973550E+01  0.000000000E+00  0.00000E+00  9.000E+00
      12     1     6     6     0     0  5.633145534E+01  9.526287349E+00 -1.671276397E+01  5.952562046E+01  1.563415176E-06  0.00000E+00  9.000E+00
      13     1     5     5     0     0 -3.042373916E+00 -5.341475589E+01  4.194705799E+01  6.798490906E+01  0.000000000E+00  0.00000E+00  9.000E+00
     -14     1     5     5     0     0 -1.473449392E+01  1.037788646E+01 -2.065842841E+01  2.741489564E+01  7.907449699E-07  0.00000E+00  9.000E+00
       5     1     4     4   511     0 -6.186538513E+01 -8.610803620E+00 -3.541201799E+01  7.195863627E+01  4.750000000E+00  0.00000E+00  9.000E+00
      -5     1     3     3     0   501  9.459130195E+00 -1.834407448E+01  1.617792963E+02  1.631596869E+02  4.750000000E+00  0.00000E+00  9.000E+00
       1     1     1     2   502     0  3.689300162E+01  3.146291712E+01 -5.921647188E+02  5.941464995E+02  0.000000000E+00  0.00000E+00  9.000E+00
      21     1     4     4   507   511 -3.311161301E+00  1.711877914E+00  1.623396809E+00  4.065677355E+00  8.940696716E-08  0.00000E+00  9.000E+00
#rwgt            1          17   17.612884219188388                1     8441685           0         110           0
<weights>
-.83726E+00
</weights>
</event>
<event>
     15  10001 -1.35503E+01  4.73698E+01 -1.00000E+00  1.67415E-01
      21    -1     0     0   502   501  0.000000000E+00  0.000000000E+00  3.592337591E+02  3.592337591E+02  0.000000000E+00  0.00000E+00  9.000E+00
      21    -1     0     0   507   511  0.000000000E+00  0.000000000E+00 -1.273143998E+03  1.273143998E+03  0.000000000E+00  0.00000E+00  9.000E+00
      -6     2     1     2     0   501 -7.938567006E+01 -5.730099597E+01 -2.979402999E+02  3.573010406E+02  1.712019935E+02  0.00000E+00  9.000E+00
       6     2     1     2   507     0  3.434206845E+01  4.263902205E+01 -9.353196010E+02  9.522329368E+02  1.700804106E+02  0.00000E+00  9.000E+00
     -24     2     3     3     0     0 -1.886206269E+01  1.057409119E+01 -7.146828282E+01  1.095287776E+02  8.013269534E+01  0.00000E+00  9.000E+00
      24     2     4     4     0     0 -2.718440941E+01  3.073547309E+01 -7.687291475E+02  7.739881890E+02  8.018449401E+01  0.00000E+00  9.000E+00
     -11     1     6     6     0     0  1.568939310E+01  1.511348201E+01 -6.071181332E+01  6.450192765E+01  0.000000000E+00  0.00000E+00  9.000E+00
      12     1     6     6     0     0 -4.287380251E+01  1.562199108E+01 -7.080173342E+02  7.094862613E+02  1.321449896E-05  0.00000E+00  9.000E+00
      13     1     5     5     0     0  8.070008172E+00  1.533537050E+01 -7.922684981E+01  8.109989119E+01  0.000000000E+00  0.00000E+00  9.000E+00
     -14     1     5     5     0     0 -2.693207086E+01 -4.761279310E+00  7.758566989E+00  2.842888642E+01  1.964242107E-06  0.00000E+00  9.000E+00
       5     1     4     4   514     0  5.946272346E+01  1.079023069E+01 -1.552718223E+02  1.666857698E+02  4.750000000E+00  0.00000E+00  9.000E+00
      -5     1     3     3     0   512 -4.275569279E+01 -6.842351945E+01 -2.016244793E+02  2.172206722E+02  4.750000000E+00  0.00000E+00  9.000E+00
      21     1     1     2   502   511  4.504360161E+01  1.466197392E+01  3.193496620E+02  3.228437798E+02  9.344061824E-06  0.00000E+00  9.000E+00
      21     1     3     3   512   501 -1.776791458E+01  5.484322892E-01 -2.484753776E+01  3.055159078E+01  5.840038640E-07  0.00000E+00  9.000E+00
      21     1     4     4   507   514  2.063754394E+00  1.113318271E+00 -1.131863123E+01  1.155897802E+01  0.000000000E+00  0.00000E+00  9.000E+00
#rwgt            1          17  -37.149739576705173                1     8454756           0       11110           0
<weights>
-.13205E+02
</weights>
</event>
<event>
     15  10001  1.35503E+01  4.44461E+01 -1.00000E+00  3.43709E-01
      21    -1     0     0   502   501  0.000000000E+00  0.000000000E+00  3.631336262E+02  3.631336262E+02  0.000000000E+00  0.00000E+00  9.000E+00
       1    -1     0     0   507     0  0.000000000E+00  0.000000000E+00 -1.219341294E+03  1.219341294E+03  0.000000000E+00  0.00000E+00  9.000E+00
      -6     2     1     2     0   501  4.446189350E+01  5.143773659E+00  2.199688148E+02  2.856222183E+02  1.766081927E+02  0.00000E+00  9.000E+00
       6     2     1     2   507     0 -8.621803948E+01 -2.037146508E+01  2.457113500E+01  1.952081240E+02  1.722031477E+02  0.00000E+00  9.000E+00
     -24     2     3     3     0     0  2.617671285E+00  1.342288796E+01  2.270391618E+02  2.411860505E+02  8.023031738E+01  0.00000E+00  9.000E+00
      24     2     4     4     0     0  2.057396508E+01 -3.045055895E+01  1.996940905E+01  8.749396239E+01  7.684979881E+01  0.00000E+00  9.000E+00
     -11     1     6     6     0     0  1.011447563E+01  2.098262042E+00  4.432806726E+01  4.551574307E+01  0.000000000E+00  0.00000E+00  9.000E+00
      12     1     6     6     0     0  1.045948945E+01 -3.254882099E+01 -2.435865821E+01  4.197821932E+01  1.617033478E-06  0.00000E+00  9.000E+00
      13     1     5     5     0     0 -1.780553976E+01 -2.358429152E+01  1.538994397E+02  1.567108599E+02  0.000000000E+00  0.00000E+00  9.000E+00
     -14     1     5     5     0     0  2.042321104E+01  3.700717948E+01  7.313972206E+01  8.447519059E+01  3.568322551E-06  0.00000E+00  9.000E+00
       5     1     4     4   512     0 -1.046809055E+02  9.003361275E+00  3.916053444E+00  1.052475675E+02  4.750000000E+00  0.00000E+00  9.000E+00
      -5     1     3     3     0   511  4.121968294E+01 -6.581140237E+00 -6.347693847E+00  4.248799108E+01  4.750000000E+00  0.00000E+00  9.000E+00
       1     1     1     2   502     0  4.175614598E+01  1.522769142E+01 -1.100747618E+03  1.101644578E+03  0.000000000E+00  0.00000E+00  9.000E+00
      21     1     3     3   511   501  6.245392745E-01 -1.697974066E+00 -7.226531106E-01  1.948176776E+00  2.787751993E-08  0.00000E+00  9.000E+00
      21     1     4     4   507   512 -2.111099083E+00  1.075732598E+00  6.856725040E-01  2.466594159E+00  1.825012075E-08  0.00000E+00  9.000E+00
#rwgt            1          17   17.011010133713928                1     8461282           0       11110           0
<weights>
0.21110E+02
</weights>
</event>
<event>
     15  10001  1.35503E+01  5.41704E+01 -1.00000E+00  6.15031E-01
       2    -1     0     0   507     0  0.000000000E+00  0.000000000E+00  1.527080034E+03  1.527080034E+03  0.000000000E+00  0.00000E+00  9.000E+00
      21    -1     0     0   501   502  0.000000000E+00  0.000000000E+00 -3.962339245E+02  3.962339245E+02  0.000000000E+00  0.00000E+00  9.000E+00
      -6     2     1     2     0   502  1.550873383E+02 -9.399119516E+01 -1.703628565E+02  3.026413637E+02  1.722842562E+02  0.00000E+00  9.000E+00
       6     2     1     2   507     0 -1.102474711E+02  6.359674138E+01 -8.708567762E+01  2.313215039E+02  1.724142469E+02  0.00000E+00  9.000E+00
     -24     2     3     3     0     0  1.125152265E+02 -6.101166278E+01 -3.320334010E+01  1.548403976E+02  8.056666642E+01  0.00000E+00  9.000E+00
      24     2     4     4     0     0 -5.939488754E+01  6.213956828E+00  1.484640186E+01  1.035309318E+02  8.325786612E+01  0.00000E+00  9.000E+00
     -11     1     6     6     0     0 -7.454912552E+01  1.920097837E+01 -2.595067339E+00  7.702586617E+01  0.000000000E+00  0.00000E+00  9.000E+00
      12     1     6     6     0     0  1.515423797E+01 -1.298702154E+01  1.744146920E+01  2.650506565E+01  1.651812370E-06  0.00000E+00  9.000E+00
      13     1     5     5     0     0 -4.786553066E+00  7.956052400E+00 -1.487803976E+01  1.753755762E+01  0.000000000E+00  0.00000E+00  9.000E+00
     -14     1     5     5     0     0  1.173017796E+02 -6.896771518E+01 -1.832530033E+01  1.373028400E+02  1.768159506E-06  0.00000E+00  9.000E+00
       5     1     4     4   512     0 -3.990578280E+01  4.817946839E+01 -8.155601796E+01  1.028964491E+02  4.750000000E+00  0.00000E+00  9.000E+00
      -5     1     3     3     0   511  4.211201324E+01 -3.335157686E+01 -1.369287242E+02  1.471658498E+02  4.750000000E+00  0.00000E+00  9.000E+00
       2     1     1     2   501     0 -4.483986714E+01  3.039445378E+01  1.388294644E+03  1.389351091E+03  0.000000000E+00  0.00000E+00  9.000E+00
      21     1     4     4   507   512 -1.094680078E+01  9.203316156E+00 -2.037606152E+01  2.489412298E+01  8.596304120E-07  0.00000E+00  9.000E+00
      21     1     3     3   511   502  4.600985200E-01  3.720444824E-01 -2.307921572E-01  6.351163396E-01  9.125060375E-09  0.00000E+00  9.000E+00
#rwgt            1          17   26.202313776134588                1     8470165           0       11011           0
<weights>
0.14266E+02
</weights>
</event>
<event>
     14  10001  1.35503E+01  3.70212E+00 -1.00000E+00  3.75286E-01
      21    -1     0     0   507   511  0.000000000E+00  0.000000000E+00  5.844713491E+02  5.844713491E+02  0.000000000E+00  0.00000E+00  9.000E+00
      21    -1     0     0   501   502  0.000000000E+00  0.000000000E+00 -7.595234851E+01  7.595234851E+01  0.000000000E+00  0.00000E+00  9.000E+00
      -6     2     1     2     0   502 -6.138607383E+00  6.679194094E+01  1.019476163E+02  2.109643374E+02  1.720865751E+02  0.00000E+00  9.000E+00
       6     2     1     2   507     0  9.810644974E+00 -6.726291528E+01  4.052301378E+02  4.455217696E+02  1.722139197E+02  0.00000E+00  9.000E+00
     -24     2     3     3     0     0 -1.379419159E+00  7.658077375E+01  1.347798134E+02  1.750130151E+02  8.122462467E+01  0.00000E+00  9.000E+00
      24     2     4     4     0     0 -2.213530580E+01  2.535915009E+01  1.851405575E+02  2.045624855E+02  8.022297791E+01  0.00000E+00  9.000E+00
     -11     1     6     6     0     0 -2.478913138E+01 -2.307757751E+01  1.102407639E+02  1.153260666E+02  0.000000000E+00  0.00000E+00  9.000E+00
      12     1     6     6     0     0  2.653825585E+00  4.843672760E+01  7.489979359E+01  8.923641886E+01  9.536743164E-07  0.00000E+00  9.000E+00
      13     1     5     5     0     0 -1.932990736E+01  9.174361619E+00 -1.982769098E+00  2.148826664E+01  0.000000000E+00  0.00000E+00  9.000E+00
     -14     1     5     5     0     0  1.795048820E+01  6.740641213E+01  1.367625825E+02  1.535247485E+02  3.303624740E-06  0.00000E+00  9.000E+00
       5     1     4     4   507     0  3.194595077E+01 -9.262206537E+01  2.200895803E+02  2.409592841E+02  4.750000000E+00  0.00000E+00  9.000E+00
      -5     1     3     3     0   513 -6.217486763E+00 -9.954433642E+00 -3.157438783E+01  3.401841204E+01  4.750000000E+00  0.00000E+00  9.000E+00
      21     1     1     2   501   511 -3.672037591E+00  4.709743375E-01  1.341246457E+00  3.937590501E+00  2.107342426E-08  0.00000E+00  9.000E+00
      21     1     3     3   513   502  1.458298539E+00  1.656008353E-01 -1.257809219E+00  1.932910317E+00  7.300048300E-08  0.00000E+00  9.000E+00
#rwgt            1          17   1.5039948760089479                1     8480961           0         111           0
<weights>
-.47031E+02
</weights>
</event>
<event>
     15  10001  1.35503E+01  2.74670E+01 -1.00000E+00  3.51106E-01
      21    -1     0     0   511   501  0.000000000E+00  0.000000000E+00  1.196022786E+02  1.196022786E+02  0.000000000E+00  0.00000E+00  9.000E+00
      21    -1     0     0   507   502  0.000000000E+00  0.000000000E+00 -6.656316472E+02  6.656316472E+02  0.000000000E+00  0.00000E+00  9.000E+00
      -6     2     1     2     0   501  5.134322905E+01  8.633528346E+01 -7.298818611E+01  2.006302618E+02  1.575922533E+02  0.00000E+00  9.000E+00
       6     2     1     2   507     0 -3.427168824E+01 -6.481786618E+01 -1.034796053E+02  2.140227740E+02  1.724001586E+02  0.00000E+00  9.000E+00
     -24     2     3     3     0     0  3.985757253E+01  7.267357217E-01  7.959687954E-01  8.634310598E+01  7.658553487E+01  0.00000E+00  9.000E+00
      24     2     4     4     0     0  6.776606735E+00  3.575949959E+00 -1.056101594E+02  1.320265180E+02  7.885927895E+01  0.00000E+00  9.000E+00
     -11     1     6     6     0     0  3.097336119E+01 -7.350830397E-02 -8.839838241E+00  3.221020408E+01  0.000000000E+00  0.00000E+00  9.000E+00
      12     1     6     6     0     0 -2.419675446E+01  3.649458263E+00 -9.677032116E+01  9.981631394E+01  1.907348633E-06  0.00000E+00  9.000E+00
      13     1     5     5     0     0  4.347606974E+01 -3.136122719E+01  4.719815536E+00  5.381423482E+01  0.000000000E+00  0.00000E+00  9.000E+00
     -14     1     5     5     0     0 -3.618497215E+00  3.208796291E+01 -3.923846740E+00  3.252887116E+01  5.900558792E-07  0.00000E+00  9.000E+00
       5     1     4     4   512     0 -8.906178614E-01 -6.739382279E+00  1.418736609E+00  8.413547839E+00  4.750000000E+00  0.00000E+00  9.000E+00
      -5     1     3     3     0   513  1.266004371E+01  8.466482830E+01 -7.206716782E+01  1.120028974E+02  4.750000000E+00  0.00000E+00  9.000E+00
      21     1     4     4   507   512 -4.015767712E+01 -6.165443386E+01  7.118174991E-01  7.358270809E+01  1.695494169E-06  0.00000E+00  9.000E+00
      21     1     1     2   511   502 -1.707154080E+01 -2.151741728E+01 -3.695615772E+02  3.705808901E+02  7.629394531E-06  0.00000E+00  9.000E+00
      21     1     3     3   513   501 -1.174387186E+00  9.437194435E-01 -1.716987082E+00  2.284258368E+00  3.650024150E-08  0.00000E+00  9.000E+00
#rwgt            1          17   3.2300357567643099                1     8498985           0      100111           0
<weights>
0.27468E+02
</weights>
</event>
<event>
     13  10001  1.35503E+01  1.09734E+01 -1.00000E+00  1.91207E-01
      21    -1     0     0   507   501  0.000000000E+00  0.000000000E+00  8.988217034E+01  8.988217034E+01  0.000000000E+00  0.00000E+00  9.000E+00
      21    -1     0     0   501   511  0.000000000E+00  0.000000000E+00 -8.900639442E+02  8.900639442E+02  0.000000000E+00  0.00000E+00  9.000E+00
      -6     2     1     2     0   502 -1.361795496E+02 -1.428205942E+02 -3.986444540E+02  4.772912293E+02  1.730517987E+02  0.00000E+00  9.000E+00
       6     2     1     2   507     0  1.277202139E+02  1.358309850E+02 -2.695587214E+02  3.702208811E+02  1.721600622E+02  0.00000E+00  9.000E+00
     -24     2     3     3     0     0 -4.540809333E+01 -1.348016879E+02 -1.967925751E+02  2.557725989E+02  8.036737339E+01  0.00000E+00  9.000E+00
      24     2     4     4     0     0  1.268372607E+02  1.651175121E+02 -2.315808902E+02  3.220196525E+02  8.194793719E+01  0.00000E+00  9.000E+00
     -11     1     6     6     0     0  2.676248277E+01  8.944947555E+01 -6.629110864E+01  1.145074244E+02  0.000000000E+00  0.00000E+00  9.000E+00
      12     1     6     6     0     0  1.000747779E+02  7.566803651E+01 -1.652897815E+02  2.075122281E+02  3.814697266E-06  0.00000E+00  9.000E+00
      13     1     5     5     0     0  1.755025261E+01 -2.924587005E+01 -7.667046620E+01  8.391479410E+01  0.000000000E+00  0.00000E+00  9.000E+00
     -14     1     5     5     0     0 -6.295834594E+01 -1.055558179E+02 -1.201221089E+02  1.718578048E+02  2.697398305E-06  0.00000E+00  9.000E+00
       5     1     4     4   507     0  8.829531750E-01 -2.928652706E+01 -3.797783128E+01  4.820122864E+01  4.750000000E+00  0.00000E+00  9.000E+00
      -5     1     3     3     0   502 -9.077145624E+01 -8.018906281E+00 -2.018518789E+02  2.215186304E+02  4.750000000E+00  0.00000E+00  9.000E+00
      21     1     1     2   502   511  8.459335710E+00  6.989609213E+00 -1.319785984E+02  1.324340041E+02  0.000000000E+00  0.00000E+00  9.000E+00
#rwgt            2         113  0.26656763684306634                1     8504994           0           1           0
<weights>
0.13550E+02
</weights>
</event>
<event>
     15  10001  1.35503E+01  2.51137E+01 -1.00000E+00  1.72586E-01
      -1    -1     0     0     0   513  0.000000000E+00  0.000000000E+00  8.441329845E+01  8.441329845E+01  0.000000000E+00  0.00000E+00  9.000E+00
       1    -1     0     0   507     0  0.000000000E+00  0.000000000E+00 -3.244451445E+03  3.244451445E+03  0.000000000E+00  0.00000E+00  9.000E+00
      -6     2     1     2     0   501  4.145429075E+01  4.382784549E+02 -1.228901398E+03  1.318285020E+03  1.840388139E+02  0.00000E+00  9.000E+00
       6     2     1     2   507     0 -2.771379465E+01 -4.172571479E+02 -1.254625257E+03  1.333602254E+03  1.718687112E+02  0.00000E+00  9.000E+00
     -24     2     3     3     0     0  5.466496434E+01  4.096054369E+02 -1.008565795E+03  1.093061389E+03  8.254311486E+01  0.00000E+00  9.000E+00
      24     2     4     4     0     0 -5.668717414E+01 -3.710630026E+02 -1.058968692E+03  1.126455462E+03  8.115436557E+01  0.00000E+00  9.000E+00
     -11     1     6     6     0     0 -3.991755898E+01 -8.485041515E+01 -1.997419211E+02  2.206577429E+02  0.000000000E+00  0.00000E+00  9.000E+00
      12     1     6     6     0     0 -1.676961515E+01 -2.862125874E+02 -8.592267707E+02  9.057977195E+02  1.525878906E-05  0.00000E+00  9.000E+00
      13     1     5     5     0     0 -7.649342389E+00  2.460819968E+02 -5.726438525E+02  6.233264341E+02  0.000000000E+00  0.00000E+00  9.000E+00
     -14     1     5     5     0     0  6.231430673E+01  1.635234401E+02 -4.359219424E+02  4.697349552E+02  5.394796609E-06  0.00000E+00  9.000E+00
       5     1     4     4   512     0  2.164731905E+01 -2.829268220E+01 -5.867971254E+01  6.881099805E+01  4.750000000E+00  0.00000E+00  9.000E+00
      -5     1     3     3     0   511 -9.311902113E+00 -4.275834104E+00 -9.108183386E+01  9.177939441E+01  4.750000000E+00  0.00000E+00  9.000E+00
      21     1     4     4   507   512  7.326060436E+00 -1.790146313E+01 -1.369768526E+02  1.383357932E+02  3.814697266E-06  0.00000E+00  9.000E+00
      21     1     1     2   501   513 -1.374049610E+01 -2.102130702E+01 -6.765114917E+02  6.769774701E+02  2.018548058E-05  0.00000E+00  9.000E+00
      21     1     3     3   511   501 -3.898771477E+00  3.294885208E+01 -1.292537693E+02  1.334442361E+02  1.907348633E-06  0.00000E+00  9.000E+00
#rwgt            1           2   2.3183561773658874                1     8508745           0      100111           0
<weights>
0.12167E+02
</weights>
</event>
<event>
     15  10001  1.35503E+01  5.95882E+01 -1.00000E+00  3.39222E-01
      -3    -1     0     0     0   501  0.000000000E+00  0.000000000E+00  3.461176717E+01  3.461176717E+01  0.000000000E+00  0.00000E+00  9.000E+00
      21    -1     0     0   507   502  0.000000000E+00  0.000000000E+00 -2.011093239E+03  2.011093239E+03  0.000000000E+00  0.00000E+00  9.000E+00
      -6     2     1     2     0   501  9.294305591E+01  9.354991141E+01 -8.666526384E+02  8.935556443E+02  1.731037150E+02  0.00000E+00  9.000E+00
       6     2     1     2   507     0 -5.974115586E+01 -4.406869875E+01 -1.053451070E+03  1.070117607E+03  1.728626060E+02  0.00000E+00  9.000E+00
     -24     2     3     3     0     0  1.020364547E+02  5.932847064E+01 -3.851188367E+02  4.106333228E+02  7.982419407E+01  0.00000E+00  9.000E+00
      24     2     4     4     0     0 -1.665259812E+01 -7.298666127E+01 -4.000353475E+02  4.145379657E+02  7.879774113E+01  0.00000E+00  9.000E+00
     -11     1     6     6     0     0  3.162616987E+01 -3.556111847E+01 -1.719325098E+02  1.783972973E+02  0.000000000E+00  0.00000E+00  9.000E+00
      12     1     6     6     0     0 -4.827876798E+01 -3.742554280E+01 -2.281028377E+02  2.361406683E+02  4.672030912E-06  0.00000E+00  9.000E+00
      13     1     5     5     0     0  4.620541357E+01  6.554862347E+01 -2.822823548E+02  2.934533866E+02  0.000000000E+00  0.00000E+00  9.000E+00
     -14     1     5     5     0     0  5.583104111E+01 -6.220152837E+00 -1.028364819E+02  1.171799363E+02  4.862803949E-06  0.00000E+00  9.000E+00
       5     1     4     4   511     0 -3.371139638E+01  2.626667227E+01 -4.948086204E+02  4.966734638E+02  4.750000000E+00  0.00000E+00  9.000E+00
      -5     1     3     3     0   512 -9.812133808E+00  2.950159719E+01 -4.379280845E+02  4.390560236E+02  4.750000000E+00  0.00000E+00  9.000E+00
      -3     1     1     2     0   502 -3.320190004E+01 -4.948121266E+01 -5.637776358E+01  8.203175482E+01  0.000000000E+00  0.00000E+00  9.000E+00
      21     1     4     4   507   511 -9.377161364E+00  2.651290248E+00 -1.586071021E+02  1.589061778E+02  2.697398305E-06  0.00000E+00  9.000E+00
      21     1     3     3   512   501  7.187350311E-01  4.719843578E+00 -4.360571728E+01  4.386629780E+01  4.768371582E-07  0.00000E+00  9.000E+00
#rwgt            1          17   111.13768468490413                1     8509544           0       11011           0
<weights>
0.12874E+02
</weights>
</event>
<event>
     14  10001  1.35503E+01  2.37055E+01 -1.00000E+00  7.46146E-01
      21    -1     0     0   502   511  0.000000000E+00  0.000000000E+00  6.760117106E+02  6.760117106E+02  0.000000000E+00  0.00000E+00  9.000E+00
      21    -1     0     0   507   502  0.000000000E+00  0.000000000E+00 -1.226169242E+02  1.226169242E+02  0.000000000E+00  0.00000E+00  9.000E+00
      -6     2     1     2     0   501 -5.092589867E+01  8.492690636E+01  7.373961438E+01  2.087760270E+02  1.683563843E+02  0.00000E+00  9.000E+00
       6     2     1     2   507     0  3.424409486E+01 -1.017693734E+02  1.312822565E+02  2.406740868E+02  1.707610078E+02  0.00000E+00  9.000E+00
     -24     2     3     3     0     0  2.784211863E+01  2.917685113E+01  3.738561371E+00  8.946475709E+01  7.977150938E+01  0.00000E+00  9.000E+00
      24     2     4     4     0     0  8.281264620E+01 -3.827758963E+01  8.019966687E+01  1.455904455E+02  8.025885007E+01  0.00000E+00  9.000E+00
     -11     1     6     6     0     0  5.618986647E+01 -7.414795685E+00  8.743172788E+01  1.041949487E+02  0.000000000E+00  0.00000E+00  9.000E+00
      12     1     6     6     0     0  2.662277973E+01 -3.086279394E+01 -7.232061009E+00  4.139549682E+01  1.250277577E-06  0.00000E+00  9.000E+00
      13     1     5     5     0     0  1.983510525E+01 -3.608988833E+00 -3.356844913E+01  3.915733619E+01  0.000000000E+00  0.00000E+00  9.000E+00
     -14     1     5     5     0     0  8.007013381E+00  3.278583996E+01  3.730701050E+01  5.030742090E+01  9.536743164E-07  0.00000E+00  9.000E+00
       5     1     4     4   512     0 -4.188492648E+01 -5.509649320E+01  4.575846570E+01  8.310457455E+01  4.750000000E+00  0.00000E+00  9.000E+00
      -5     1     3     3     0   501 -7.876801730E+01  5.575005524E+01  7.000105301E+01  1.193112699E+02  4.750000000E+00  0.00000E+00  9.000E+00
      21     1     1     2   501   511  1.668180381E+01  1.684246700E+01  3.483729155E+02  3.491785210E+02  5.394796609E-06  0.00000E+00  9.000E+00
      21     1     4     4   507   512 -6.683624856E+00 -8.395290537E+00  5.324123907E+00  1.197906673E+01  1.332800375E-07  0.00000E+00  9.000E+00
#rwgt            1          17   16.434001795667815                1     8516163           0         110           0
<weights>
0.17439E+02
</weights>
</event>
<event>
     15  10001  1.35503E+01  6.87188E+01 -1.00000E+00  2.05620E-01
      21    -1     0     0   512   501  0.000000000E+00  0.000000000E+00  2.407161971E+02  2.407161971E+02  0.000000000E+00  0.00000E+00  9.000E+00
      21    -1     0     0   501   502  0.000000000E+00  0.000000000E+00 -5.122723900E+02  5.122723900E+02  0.000000000E+00  0.00000E+00  9.000E+00
      -6     2     1     2     0   502 -2.806677276E+01 -1.094048662E+02 -3.810280290E+02  4.331149727E+02  1.721890015E+02  0.00000E+00  9.000E+00
       6     2     1     2   507     0  4.555781789E+01  4.294930541E+01 -5.922039216E+00  1.855679009E+02  1.745858462E+02  0.00000E+00  9.000E+00
     -24     2     3     3     0     0 -4.852995913E+01 -1.158441903E+02 -1.886516803E+02  2.393061130E+02  7.683050103E+01  0.00000E+00  9.000E+00
      24     2     4     4     0     0 -9.317514544E+00  6.210064673E+01  3.053742180E+01  1.048634182E+02  7.823359854E+01  0.00000E+00  9.000E+00
     -11     1     6     6     0     0 -6.453142447E-02 -1.884314519E+01  5.357710178E+00  1.959013383E+01  0.000000000E+00  0.00000E+00  9.000E+00
      12     1     6     6     0     0 -9.252983119E+00  8.094379192E+01  2.517971162E+01  8.527328435E+01  2.261837239E-06  0.00000E+00  9.000E+00
      13     1     5     5     0     0 -2.053237999E+01 -4.815137945E-01 -6.380875828E+01  6.703258996E+01  0.000000000E+00  0.00000E+00  9.000E+00
     -14     1     5     5     0     0 -2.799757914E+01 -1.153626765E+02 -1.248429220E+02  1.722735230E+02  6.031565972E-06  0.00000E+00  9.000E+00
       5     1     4     4   511     0  5.498913410E+01 -2.071134806E+01 -4.364546677E+01  7.335021525E+01  4.750000000E+00  0.00000E+00  9.000E+00
      -5     1     3     3     0   513  1.308797096E+01  9.582503812E-01 -9.848681906E+01  9.947074573E+01  4.750000000E+00  0.00000E+00  9.000E+00
      21     1     1     2   512   507 -1.749104513E+01  6.645556078E+01  1.153938753E+02  1.343057135E+02  1.907348633E-06  0.00000E+00  9.000E+00
      21     1     4     4   507   511 -1.138016687E-01  1.560006738E+00  7.186005751E+00  7.354267502E+00  2.528810911E-07  0.00000E+00  9.000E+00
      21     1     3     3   513   502  7.375215408E+00  5.481073731E+00 -9.388952962E+01  9.433811395E+01  1.348699152E-06  0.00000E+00  9.000E+00
#rwgt            1          17   5.6515597811426428                1     8526933           0       11011           0
<weights>
0.67941E+01
</weights>
</event>
<event>
     14  10001  1.35503E+01  7.42985E+01 -1.00000E+00  2.31241E-01
      21    -1     0     0   507   511  0.000000000E+00  0.000000000E+00  1.820099307E+02  1.820099307E+02  0.000000000E+00  0.00000E+00  9.000E+00
      21    -1     0     0   501   502  0.000000000E+00  0.000000000E+00 -5.405769442E+02  5.405769442E+02  0.000000000E+00  0.00000E+00  9.000E+00
      -6     2     1     2     0   502 -6.801343008E-01  5.742401806E+01 -3.775062344E+02  4.190707939E+02  1.726597604E+02  0.00000E+00  9.000E+00
       6     2     1     2   507     0  4.077476578E+01  5.127483567E+00 -6.754734446E+01  1.894976798E+02  1.722145589E+02  0.00000E+00  9.000E+00
     -24     2     3     3     0     0  2.186781990E+01  3.697926974E+01 -3.760574586E+02  3.870197071E+02  8.074263783E+01  0.00000E+00  9.000E+00
      24     2     4     4     0     0  9.552583909E+00  5.426520226E+01 -2.587514725E+00  1.021381811E+02  8.596248465E+01  0.00000E+00  9.000E+00
     -11     1     6     6     0     0  4.483534073E+01  4.867067004E+01  1.427442863E+00  6.618972348E+01  0.000000000E+00  0.00000E+00  9.000E+00
      12     1     6     6     0     0 -3.528275682E+01  5.594532214E+00 -4.014957588E+00  3.594845760E+01  1.691134090E-06  0.00000E+00  9.000E+00
      13     1     5     5     0     0  4.775982563E+01  3.426276834E+01 -1.828274971E+02  1.920438282E+02  0.000000000E+00  0.00000E+00  9.000E+00
     -14     1     5     5     0     0 -2.589200573E+01  2.716501399E+00 -1.932299615E+02  1.949758789E+02  4.672030912E-06  0.00000E+00  9.000E+00
       5     1     4     4   507     0  3.122218187E+01 -4.913771869E+01 -6.495982973E+01  8.735949873E+01  4.750000000E+00  0.00000E+00  9.000E+00
      -5     1     3     3     0   512 -1.665677423E+01  1.846354388E+01 -3.383891905E+00  2.554141352E+01  4.750000000E+00  0.00000E+00  9.000E+00
      21     1     1     2   501   511 -4.009463147E+01 -6.255150163E+01  8.648656535E+01  1.140184012E+02  4.046097457E-06  0.00000E+00  9.000E+00
      21     1     3     3   512   502 -5.891179973E+00  1.981204441E+00  1.935116092E+00  6.509673325E+00  3.953724850E-07  0.00000E+00  9.000E+00
#rwgt            1          17   8.8196436964201226                1     8530160           0         111           0
<weights>
0.32382E+02
</weights>
</event>
<event>
     15  10001  1.35503E+01  1.72860E+02 -1.00000E+00  2.80288E-01
      21    -1     0     0   502   512  0.000000000E+00  0.000000000E+00  6.380738813E+02  6.380738813E+02  0.000000000E+00  0.00000E+00  9.000E+00
      21    -1     0     0   507   502  0.000000000E+00  0.000000000E+00 -1.805924830E+02  1.805924830E+02  0.000000000E+00  0.00000E+00  9.000E+00
      -6     2     1     2     0   501 -3.238315808E+01  1.601601661E+01  3.396860015E+02  3.826166735E+02  1.723477808E+02  0.00000E+00  9.000E+00
       6     2     1     2   507     0 -8.294149660E+01 -1.447821751E+02  1.079299281E+02  2.629086297E+02  1.721363068E+02  0.00000E+00  9.000E+00
     -24     2     3     3     0     0  4.720896433E+01 -1.173814356E+01  1.679753679E+02  1.911704197E+02  7.722651630E+01  0.00000E+00  9.000E+00
      24     2     4     4     0     0  1.223671056E+01 -1.059930789E+02  6.984061340E+01  1.516738000E+02  8.211553115E+01  0.00000E+00  9.000E+00
     -11     1     6     6     0     0 -1.417412009E+01 -4.380488930E+01  7.038680354E+01  8.410752712E+01  0.000000000E+00  0.00000E+00  9.000E+00
      12     1     6     6     0     0  2.641083065E+01 -6.218818964E+01 -5.461901340E-01  6.756627288E+01  2.934951940E-06  0.00000E+00  9.000E+00
      13     1     5     5     0     0  4.536347553E+01 -3.574588034E+01  1.511151936E+02  1.617758159E+02  0.000000000E+00  0.00000E+00  9.000E+00
     -14     1     5     5     0     0  1.845488794E+00  2.400773677E+01  1.686017424E+01  2.939460374E+01  4.768371582E-07  0.00000E+00  9.000E+00
       5     1     4     4   514     0 -9.560773098E+01 -3.901244694E+01  3.658291639E+01  1.096525490E+02  4.750000000E+00  0.00000E+00  9.000E+00
      -5     1     3     3     0   511 -6.202009169E+01  1.955412992E+01  1.291292487E+02  1.446574614E+02  4.750000000E+00  0.00000E+00  9.000E+00
      21     1     1     2   501   512  1.153246547E+02  1.287661585E+02  9.865468684E+00  1.731410611E+02  5.325867630E-06  0.00000E+00  9.000E+00
      21     1     3     3   511   501 -1.757203072E+01  8.200030252E+00  4.258138488E+01  4.678879244E+01  8.259061849E-07  0.00000E+00  9.000E+00
      21     1     4     4   507   514  4.295238149E-01  2.233507735E-01  1.506398310E+00  1.582280678E+00  2.107342426E-08  0.00000E+00  9.000E+00
#rwgt            1          17   13.142368291898087                1     8538798           0       11110           0
<weights>
0.16679E+02
</weights>
</event>
<event>
     13  10001  1.35503E+01  1.05441E+02 -1.00000E+00  7.42030E-01
       1    -1     0     0   507     0  0.000000000E+00  0.000000000E+00  1.512143077E+03  1.512143077E+03  0.000000000E+00  0.00000E+00  9.000E+00
      21    -1     0     0   501   502  0.000000000E+00  0.000000000E+00 -2.834965550E+02  2.834965550E+02  0.000000000E+00  0.00000E+00  9.000E+00
      -6     2     1     2     0   502 -1.375814781E+02  4.357752098E+01 -1.996180013E+02  2.998293147E+02  1.709462138E+02  0.00000E+00  9.000E+00
       6     2     1     2   507     0  2.405232051E+02 -2.075691792E+01  7.138763646E+02  7.736827522E+02  1.751664217E+02  0.00000E+00  9.000E+00
     -24     2     3     3     0     0 -1.007660432E+02  5.540131785E+01 -5.648376389E+01  1.514879824E+02  8.083991441E+01  0.00000E+00  9.000E+00
      24     2     4     4     0     0  1.438109818E+02  2.197123661E+01  2.678883216E+02  3.153086186E+02  8.056698088E+01  0.00000E+00  9.000E+00
     -11     1     6     6     0     0  7.993173263E+01  7.703721495E+00  2.200285350E+02  2.342242204E+02  0.000000000E+00  0.00000E+00  9.000E+00
      12     1     6     6     0     0  6.387924921E+01  1.426751511E+01  4.785978661E+01  8.108439826E+01  2.132480600E-06  0.00000E+00  9.000E+00
      13     1     5     5     0     0 -6.554160043E+01  1.624893059E+01 -6.984940304E+01  9.715280870E+01  0.000000000E+00  0.00000E+00  9.000E+00
     -14     1     5     5     0     0 -3.522444274E+01  3.915238726E+01  1.336563915E+01  5.433517373E+01  8.596304120E-07  0.00000E+00  9.000E+00
       5     1     4     4   507     0  9.671222327E+01 -4.272815453E+01  4.459880430E+02  4.583741336E+02  4.750000000E+00  0.00000E+00  9.000E+00
      -5     1     3     3     0   502 -3.681543495E+01 -1.182379687E+01 -1.431342374E+02  1.483413322E+02  4.750000000E+00  0.00000E+00  9.000E+00
       1     1     1     2   501     0 -1.029417270E+02 -2.282060306E+01  7.143881582E+02  7.221275647E+02  0.000000000E+00  0.00000E+00  9.000E+00
#rwgt            1          17   29.483941488171638                1     8545344           0           1           0
<weights>
0.67598E+01
</weights>
</event>
<event>
     13  10001  1.35503E+01  3.48899E+02 -1.00000E+00  1.03504E-01
      21    -1     0     0   507   501  0.000000000E+00  0.000000000E+00  3.861332926E+02  3.861332926E+02  0.000000000E+00  0.00000E+00  9.000E+00
      21    -1     0     0   511   502  0.000000000E+00  0.000000000E+00 -9.783413630E+02  9.783413630E+02  0.000000000E+00  0.00000E+00  9.000E+00
      -6     2     1     2     0   502 -1.949489942E+02  1.312807830E+02  6.805080455E+01  2.996288516E+02  1.729357753E+02  0.00000E+00  9.000E+00
       6     2     1     2   507     0  1.444617606E+01  1.672980752E+02  7.403960265E+01  2.518729532E+02  1.725131410E+02  0.00000E+00  9.000E+00
     -24     2     3     3     0     0 -1.966365082E+02  1.560003704E+02  4.517374522E+01  2.655726033E+02  7.406826902E+01  0.00000E+00  9.000E+00
      24     2     4     4     0     0 -1.478882359E+01  2.122179817E+01  1.629796560E+01  9.203045862E+01  8.680384560E+01  0.00000E+00  9.000E+00
     -11     1     6     6     0     0  1.720672275E+01  1.651684270E+01  4.360644147E+01  4.970310995E+01  0.000000000E+00  0.00000E+00  9.000E+00
      12     1     6     6     0     0 -3.199554635E+01  4.704955467E+00 -2.730847587E+01  4.232734868E+01  8.259061849E-07  0.00000E+00  9.000E+00
      13     1     5     5     0     0 -5.737031014E+01  8.272114998E+01  3.938128309E+01  1.080973015E+02  0.000000000E+00  0.00000E+00  9.000E+00
     -14     1     5     5     0     0 -1.392661981E+02  7.327922037E+01  5.792462133E+00  1.574753018E+02  2.600839642E-06  0.00000E+00  9.000E+00
       5     1     4     4   507     0  2.923499965E+01  1.460762770E+02  5.774163705E+01  1.598424946E+02  4.750000000E+00  0.00000E+00  9.000E+00
      -5     1     3     3     0   502  1.687513989E+00 -2.471958737E+01  2.287705933E+01  3.405624828E+01  4.750000000E+00  0.00000E+00  9.000E+00
      21     1     1     2   511   501  1.805028181E+02 -2.985788582E+02 -7.342984777E+02  8.129728508E+02  0.000000000E+00  0.00000E+00  9.000E+00
#rwgt            2         113   3.9754911087526819                1     8557556           0           1           0
<weights>
0.13550E+02
</weights>
</event>
<event>
     14  10001  1.35503E+01  2.47806E+01 -1.00000E+00  3.56051E-01
      21    -1     0     0   512   501  0.000000000E+00  0.000000000E+00  1.831768796E+02  1.831768796E+02  0.000000000E+00  0.00000E+00  9.000E+00
      21    -1     0     0   507   502  0.000000000E+00  0.000000000E+00 -7.486058080E+02  7.486058080E+02  0.000000000E+00  0.00000E+00  9.000E+00
      -6     2     1     2     0   501 -8.560880282E+01  1.426263111E+02  1.089782815E+01  2.397275503E+02  1.722771139E+02  0.00000E+00  9.000E+00
       6     2     1     2   507     0  6.573152852E+01 -1.574239779E+02 -6.063408619E+02  6.531331191E+02  1.727156269E+02  0.00000E+00  9.000E+00
     -24     2     3     3     0     0 -6.972380099E+01  2.367063405E+01  4.050875343E+01  1.159664057E+02  7.990957896E+01  0.00000E+00  9.000E+00
      24     2     4     4     0     0 -2.081023182E+01 -3.217688790E+01 -1.932113771E+02  2.128209077E+02  8.058340166E+01  0.00000E+00  9.000E+00
     -11     1     6     6     0     0  2.990883028E+01 -3.261771632E+00 -7.939317745E+01  8.490261426E+01  0.000000000E+00  0.00000E+00  9.000E+00
      12     1     6     6     0     0 -5.071906210E+01 -2.891511626E+01 -1.138181997E+02  1.279182934E+02  3.303624740E-06  0.00000E+00  9.000E+00
      13     1     5     5     0     0 -8.338980360E+01  3.280657999E+01  2.422431690E+01  9.282752051E+01  0.000000000E+00  0.00000E+00  9.000E+00
     -14     1     5     5     0     0  1.366600261E+01 -9.135945943E+00  1.628443653E+01  2.313888521E+01  1.143415337E-06  0.00000E+00  9.000E+00
       5     1     4     4   507     0  8.654176034E+01 -1.252470900E+02 -4.131294848E+02  4.403122114E+02  4.750000000E+00  0.00000E+00  9.000E+00
      -5     1     3     3     0   513 -1.350436133E+01  9.240760093E+01 -2.334941350E+01  9.638096334E+01  4.750000000E+00  0.00000E+00  9.000E+00
      21     1     1     2   512   502  1.987727430E+01  1.479766681E+01  3.001410537E+01  3.892201816E+01  4.768371582E-07  0.00000E+00  9.000E+00
      21     1     3     3   513   501 -2.380640499E+00  2.654807613E+01 -6.261511778E+00  2.738018125E+01  3.674277069E-07  0.00000E+00  9.000E+00
#rwgt            1          17   12.142941870585299                1     8558571           0         111           0
<weights>
0.16225E+02
</weights>
</event>
<event>
     14  10001  1.35503E+01  1.84601E+01 -1.00000E+00  7.52548E-01
      21    -1     0     0   511   501  0.000000000E+00  0.000000000E+00  1.064209228E+03  1.064209228E+03  0.000000000E+00  0.00000E+00  9.000E+00
      21    -1     0     0   501   502  0.000000000E+00  0.000000000E+00 -5.999302739E+01  5.999302739E+01  0.000000000E+00  0.00000E+00  9.000E+00
      -6     2     1     2     0   502 -4.697022279E+00  1.004328825E+01  1.234107800E+02  2.123762674E+02  1.724834157E+02  0.00000E+00  9.000E+00
       6     2     1     2   507     0  1.126217698E+01  7.209916573E+00  8.746413833E+02  8.923639816E+02  1.764570961E+02  0.00000E+00  9.000E+00
     -24     2     3     3     0     0  3.352371466E+01  5.208460402E+00  1.083222676E+02  1.707298270E+02  1.275303598E+02  0.00000E+00  9.000E+00
      24     2     4     4     0     0  2.831412318E+01 -5.997832398E+00  8.617058121E+02  8.656188171E+02  7.695041432E+01  0.00000E+00  9.000E+00
     -11     1     6     6     0     0 -2.078520519E+01 -1.447503789E+01  1.460066761E+02  1.481873846E+02  0.000000000E+00  0.00000E+00  9.000E+00
      12     1     6     6     0     0  4.909932837E+01  8.477205496E+00  7.156991360E+02  7.174314325E+02  7.629394531E-06  0.00000E+00  9.000E+00
      13     1     5     5     0     0  5.430340512E+01  5.224875200E+01  8.689270443E+01  1.150179724E+02  0.000000000E+00  0.00000E+00  9.000E+00
     -14     1     5     5     0     0 -2.077969046E+01 -4.704029160E+01  2.142956314E+01  5.571185462E+01  2.008950656E-06  0.00000E+00  9.000E+00
       5     1     4     4   512     0 -1.535679218E+01  1.414641491E+01  1.235830139E+01  2.472331358E+01  4.750000000E+00  0.00000E+00  9.000E+00
      -5     1     3     3     0   502 -3.822073694E+01  4.834827847E+00  1.508851241E+01  4.164644041E+01  4.750000000E+00  0.00000E+00  9.000E+00
      21     1     1     2   511   507 -6.565154703E+00 -1.725320482E+01  6.164037275E+00  1.946200628E+01  2.795705652E-07  0.00000E+00  9.000E+00
      21     1     4     4   507   512 -1.695154020E+00 -9.386659427E-01  5.772698082E-01  2.021850968E+00  1.666000469E-08  0.00000E+00  9.000E+00
#rwgt            1          17   1.3841507168303975                1     8574483           0         110           0
<weights>
0.20921E+02
</weights>
</event>
<event>
     15  10001  1.35503E+01  1.67377E+01 -1.00000E+00  2.86629E-01
      21    -1     0     0   502   512  0.000000000E+00  0.000000000E+00  1.888760847E+02  1.888760847E+02  0.000000000E+00  0.00000E+00  9.000E+00
      21    -1     0     0   507   502  0.000000000E+00  0.000000000E+00 -2.072230550E+03  2.072230550E+03  0.000000000E+00  0.00000E+00  9.000E+00
      -6     2     1     2     0   501 -1.018283767E+02 -1.430215843E+02 -3.252390357E+02  4.090506747E+02  1.752650344E+02  0.00000E+00  9.000E+00
       6     2     1     2   507     0  1.161590831E+02  1.343739685E+02 -1.695521845E+03  1.713633876E+03  1.737740999E+02  0.00000E+00  9.000E+00
     -24     2     3     3     0     0 -5.991126465E+01 -8.391305399E+01 -8.024451460E+01  1.530728894E+02  7.975817882E+01  0.00000E+00  9.000E+00
      24     2     4     4     0     0  1.417141041E+01  1.049763196E+02 -7.270500978E+02  7.390314856E+02  7.965447512E+01  0.00000E+00  9.000E+00
     -11     1     6     6     0     0 -9.439345737E+00 -1.664286674E+00 -1.054868080E+01  1.425292127E+01  0.000000000E+00  0.00000E+00  9.000E+00
      12     1     6     6     0     0  2.361075614E+01  1.066406062E+02 -7.165014170E+02  7.247785643E+02  2.412626389E-05  0.00000E+00  9.000E+00
      13     1     5     5     0     0 -1.535144903E+01  1.354438128E+01 -2.380445972E+00  2.061028322E+01  0.000000000E+00  0.00000E+00  9.000E+00
     -14     1     5     5     0     0 -4.455981563E+01 -9.745743526E+01 -7.786406863E+01  1.324626062E+02  5.135693366E-06  0.00000E+00  9.000E+00
       5     1     4     4   511     0  1.004375438E+02  2.547825182E+01 -8.912735117E+02  8.972891823E+02  4.750000000E+00  0.00000E+00  9.000E+00
      -5     1     3     3     0   513 -3.696182580E+01 -5.529106295E+01 -2.341499239E+02  2.434584720E+02  4.750000000E+00  0.00000E+00  9.000E+00
      21     1     1     2   501   512 -1.433070633E+01  8.647615813E+00  1.374064153E+02  1.384220841E+02  8.313939941E-06  0.00000E+00  9.000E+00
      21     1     4     4   507   511  1.550128910E+00  3.919397118E+00 -7.719823594E+01  7.731320848E+01  1.348699152E-06  0.00000E+00  9.000E+00
      21     1     3     3   513   501 -4.955286295E+00 -3.817467386E+00 -1.084459717E+01  1.251931337E+01  2.384185791E-07  0.00000E+00  9.000E+00
#rwgt            1          17   15.809966253672956                1     8590112           0       11011           0
<weights>
0.14642E+02
</weights>
</event>
<event>
     15  10001 -1.35503E+01  5.20401E+01 -1.00000E+00  4.05793E-01
       3    -1     0     0   507     0  0.000000000E+00  0.000000000E+00  8.700420469E+01  8.700420469E+01  0.000000000E+00  0.00000E+00  9.000E+00
      21    -1     0     0   511   502  0.000000000E+00  0.000000000E+00 -9.661413472E+02  9.661413472E+02  0.000000000E+00  0.00000E+00  9.000E+00
      -6     2     1     2     0   502  4.858505536E+01  5.551524036E+01 -7.655867185E+01  2.022035231E+02  1.719958866E+02  0.00000E+00  9.000E+00
       6     2     1     2   507     0 -1.594876877E+01 -1.498079800E+01 -3.122803731E+02  3.578899092E+02  1.734571074E+02  0.00000E+00  9.000E+00
     -24     2     3     3     0     0  1.642690941E+01 -6.653728365E+00  1.685169082E+01  8.531111966E+01  8.173060749E+01  0.00000E+00  9.000E+00
      24     2     4     4     0     0 -4.875667781E+01  1.650331940E+01 -9.272750599E+01  1.325787949E+02  7.955610162E+01  0.00000E+00  9.000E+00
     -11     1     6     6     0     0  1.084271802E+01 -9.731125573E+00 -5.590210342E+01  5.776940805E+01  0.000000000E+00  0.00000E+00  9.000E+00
      12     1     6     6     0     0 -5.959939582E+01  2.623444497E+01 -3.682540256E+01  7.480938684E+01  1.719260824E-06  0.00000E+00  9.000E+00
      13     1     5     5     0     0 -1.774802471E+01  1.227642117E+01  3.586931580E+01  4.186061053E+01  0.000000000E+00  0.00000E+00  9.000E+00
     -14     1     5     5     0     0  3.417493412E+01 -1.893014953E+01 -1.901762498E+01  4.345050913E+01  1.168007728E-06  0.00000E+00  9.000E+00
       5     1     4     4   512     0  2.619335573E+01 -1.187771109E+01 -1.471469372E+02  1.500065183E+02  4.750000000E+00  0.00000E+00  9.000E+00
      -5     1     3     3     0   514  2.663341448E+01  5.271213123E+01 -8.068917188E+01  1.001060063E+02  4.750000000E+00  0.00000E+00  9.000E+00
       3     1     1     2   511     0 -3.263628658E+01 -4.053444236E+01 -4.902980975E+02  4.930521196E+02  0.000000000E+00  0.00000E+00  9.000E+00
      21     1     4     4   507   512  6.614553304E+00 -1.960640631E+01 -7.240592993E+01  7.530459595E+01  0.000000000E+00  0.00000E+00  9.000E+00
      21     1     3     3   514   502  5.524731474E+00  9.456837499E+00 -1.272119079E+01  1.678639713E+01  2.920019320E-07  0.00000E+00  9.000E+00
#rwgt            1          16  -3.2853704362892373E-002           1     8602393           0       11011           0
<weights>
-.13498E+02
</weights>
</event>
<event>
     15  10001  1.35503E+01  3.81460E+01 -1.00000E+00  1.91237E-01
      21    -1     0     0   507   512  0.000000000E+00  0.000000000E+00  1.949191476E+03  1.949191476E+03  0.000000000E+00  0.00000E+00  9.000E+00
      21    -1     0     0   501   502  0.000000000E+00  0.000000000E+00 -3.318840822E+01  3.318840822E+01  0.000000000E+00  0.00000E+00  9.000E+00
      -6     2     1     2     0   502  8.305295913E+01 -2.180155299E+01  3.423648902E+02  3.886133755E+02  1.625839346E+02  0.00000E+00  9.000E+00
       6     2     1     2   507     0 -1.151954089E+02  4.234376322E+01  1.408867066E+03  1.424637449E+03  1.721118136E+02  0.00000E+00  9.000E+00
     -24     2     3     3     0     0  1.454034662E+01  3.086684530E+01  1.222906106E+02  1.502614620E+02  8.036995531E+01  0.00000E+00  9.000E+00
      24     2     4     4     0     0  3.338280775E+00  1.075969228E+01  7.536847163E+02  7.580277555E+02  8.024033533E+01  0.00000E+00  9.000E+00
     -11     1     6     6     0     0 -2.701279649E+01 -2.069900768E+01  4.396633809E+02  4.409784900E+02  0.000000000E+00  0.00000E+00  9.000E+00
      12     1     6     6     0     0  3.035107727E+01  3.145869996E+01  3.140213354E+02  3.170492656E+02  0.000000000E+00  0.00000E+00  9.000E+00
      13     1     5     5     0     0 -1.465072113E+00 -2.607306045E+01  5.354487342E+01  5.957352086E+01  0.000000000E+00  0.00000E+00  9.000E+00
     -14     1     5     5     0     0  1.600541873E+01  5.693990575E+01  6.874573713E+01  9.068794115E+01  9.536743164E-07  0.00000E+00  9.000E+00
       5     1     4     4   513     0 -9.350424504E+01  2.484298335E+01  5.047645187E+02  5.139747071E+02  4.750000000E+00  0.00000E+00  9.000E+00
      -5     1     3     3     0   511  7.097666455E+01 -4.686462102E+01  2.067299829E+02  2.235929962E+02  4.750000000E+00  0.00000E+00  9.000E+00
      21     1     1     2   501   512  3.214244979E+01 -2.054221023E+01  1.647711120E+02  1.691290597E+02  1.907348633E-06  0.00000E+00  9.000E+00
      21     1     3     3   511   502 -2.464052039E+00 -5.803777264E+00  1.334429676E+01  1.475891727E+01  0.000000000E+00  0.00000E+00  9.000E+00
      21     1     4     4   507   513 -2.502944465E+01  6.741087591E+00  1.504178307E+02  1.526349867E+02  2.697398305E-06  0.00000E+00  9.000E+00
#rwgt            1          17   43.517825384270182                1     8603323           0       11110           0
<weights>
0.21845E+02
</weights>
</event>
<event>
     15  10001  1.35503E+01  1.51546E+01 -1.00000E+00  4.02030E-01
      21    -1     0     0   507   501  0.000000000E+00  0.000000000E+00  4.099109626E+02  4.099109626E+02  0.000000000E+00  0.00000E+00  9.000E+00
      21    -1     0     0   511   502  0.000000000E+00  0.000000000E+00 -1.990134026E+02  1.990134026E+02  0.000000000E+00  0.00000E+00  9.000E+00
      -6     2     1     2     0   502  4.498139888E+01  1.470380954E+02 -2.652688965E+01  2.323530443E+02  1.721648442E+02  0.00000E+00  9.000E+00
       6     2     1     2   507     0 -5.979025962E+01 -1.502566345E+02  2.586664026E+02  3.504776068E+02  1.725523506E+02  0.00000E+00  9.000E+00
     -24     2     3     3     0     0  5.395767704E+01  3.019710628E+01  2.200837376E+01  1.045955473E+02  8.144055419E+01  0.00000E+00  9.000E+00
      24     2     4     4     0     0 -7.731364978E+00 -4.964670572E+01  2.039569621E+02  2.241780395E+02  7.831207835E+01  0.00000E+00  9.000E+00
     -11     1     6     6     0     0  4.842241483E-01 -7.028334458E+01  1.439564609E+02  1.601981450E+02  0.000000000E+00  0.00000E+00  9.000E+00
      12     1     6     6     0     0 -8.215589127E+00  2.063663886E+01  6.000050115E+01  6.397989455E+01  9.536743164E-07  0.00000E+00  9.000E+00
      13     1     5     5     0     0  4.727102745E+01  4.597420704E+01 -1.152253244E+01  6.693987230E+01  0.000000000E+00  0.00000E+00  9.000E+00
     -14     1     5     5     0     0  6.686649584E+00 -1.577710077E+01  3.353090620E+01  3.765567503E+01  1.066240300E-06  0.00000E+00  9.000E+00
       5     1     4     4   512     0 -4.740497181E+01 -9.588895612E+01  5.002329918E+01  1.181812854E+02  4.750000000E+00  0.00000E+00  9.000E+00
      -5     1     3     3     0   514 -9.256887160E+00  1.164761235E+02 -4.926592577E+01  1.268939370E+02  4.750000000E+00  0.00000E+00  9.000E+00
      21     1     1     2   511   501  1.480886074E+01  3.218539184E+00 -2.124195299E+01  2.609371414E+01  6.743495762E-07  0.00000E+00  9.000E+00
      21     1     4     4   507   512 -4.653922828E+00 -4.720972697E+00  4.686141318E+00  8.118281921E+00  8.429369702E-08  0.00000E+00  9.000E+00
      21     1     3     3   514   502  2.806090031E-01  3.648656218E-01  7.306623582E-01  8.635599669E-01  1.490116119E-08  0.00000E+00  9.000E+00
#rwgt            1          17   12.550548408900076                1     8611799           0       11011           0
<weights>
0.15892E+02
</weights>
</event>
<event>
     15  10001 -1.35503E+01  6.61019E+01 -1.00000E+00  3.05482E-01
      21    -1     0     0   507   512  0.000000000E+00  0.000000000E+00  6.882599693E+02  6.882599693E+02  0.000000000E+00  0.00000E+00  9.000E+00
      21    -1     0     0   501   502  0.000000000E+00  0.000000000E+00 -9.450531707E+01  9.450531707E+01  0.000000000E+00  0.00000E+00  9.000E+00
      -6     2     1     2     0   502 -6.334630768E+01 -9.461655377E+01  1.341724750E+02  2.461273661E+02  1.720795756E+02  0.00000E+00  9.000E+00
       6     2     1     2   507     0  2.038132564E+00  6.990294518E+01  2.078554452E+02  2.763768928E+02  1.681954965E+02  0.00000E+00  9.000E+00
     -24     2     3     3     0     0 -7.463644071E+00 -1.182163383E+02  8.292998234E+01  1.658890799E+02  8.130803304E+01  0.00000E+00  9.000E+00
      24     2     4     4     0     0  6.184486596E+01  6.516117525E+01  1.408742583E+02  1.852761024E+02  8.006816650E+01  0.00000E+00  9.000E+00
     -11     1     6     6     0     0  1.511380481E+01  3.647340449E+01  6.327541178E+00  3.998467342E+01  0.000000000E+00  0.00000E+00  9.000E+00
      12     1     6     6     0     0  4.673106115E+01  2.868777076E+01  1.345467171E+02  1.452914290E+02  4.264961200E-06  0.00000E+00  9.000E+00
      13     1     5     5     0     0 -3.613551414E+01 -5.221010223E+01  6.675368358E+01  9.212884688E+01  0.000000000E+00  0.00000E+00  9.000E+00
     -14     1     5     5     0     0  2.867187007E+01 -6.600623608E+01  1.617629876E+01  7.376023302E+01  1.305872339E-06  0.00000E+00  9.000E+00
       5     1     4     4   511     0 -5.740089619E+01  4.934788816E+00  6.723983197E+01  8.867340372E+01  4.750000000E+00  0.00000E+00  9.000E+00
      -5     1     3     3     0   513 -5.458420024E+01  2.137245499E+01  4.704727892E+01  7.531417996E+01  4.750000000E+00  0.00000E+00  9.000E+00
      21     1     1     2   501   512  6.130817511E+01  2.471360859E+01  2.517267320E+02  2.602610274E+02  2.697398305E-06  0.00000E+00  9.000E+00
      21     1     4     4   507   511 -2.405837208E+00 -1.930188849E-01 -2.586449844E-01  2.427386699E+00  9.577691654E-08  0.00000E+00  9.000E+00
      21     1     3     3   513   502 -1.298463368E+00  2.227329543E+00  4.195213718E+00  4.924106229E+00  1.460009660E-07  0.00000E+00  9.000E+00
#rwgt            1          17  -23.669909032916859                1     8619313           0       11011           0
<weights>
-.13529E+02
</weights>
</event>
</LesHouchesEvents>
 #Random number generator exit values:            1       8624855             0
